 Entering Gaussian System, Link 0=g03
 Input=Butene_1-freq.com
 Output=Butene_1-freq.log
 Initial command:
 /home/g03/l1.exe /scratch/mrharper/Gau-12456.inp -scrdir=/scratch/mrharper/
 Entering Link 1 = /home/g03/l1.exe PID=     12458.
  
 Copyright (c) 1988,1990,1992,1993,1995,1998,2003,2004, Gaussian, Inc.
                  All Rights Reserved.
  
 This is the Gaussian(R) 03 program.  It is based on the
 the Gaussian(R) 98 system (copyright 1998, Gaussian, Inc.),
 the Gaussian(R) 94 system (copyright 1995, Gaussian, Inc.),
 the Gaussian 92(TM) system (copyright 1992, Gaussian, Inc.),
 the Gaussian 90(TM) system (copyright 1990, Gaussian, Inc.),
 the Gaussian 88(TM) system (copyright 1988, Gaussian, Inc.),
 the Gaussian 86(TM) system (copyright 1986, Carnegie Mellon
 University), and the Gaussian 82(TM) system (copyright 1983,
 Carnegie Mellon University). Gaussian is a federally registered
 trademark of Gaussian, Inc.
  
 This software contains proprietary and confidential information,
 including trade secrets, belonging to Gaussian, Inc.
  
 This software is provided under written license and may be
 used, copied, transmitted, or stored only in accord with that
 written license.
  
 The following legend is applicable only to US Government
 contracts under FAR:
  
                    RESTRICTED RIGHTS LEGEND
  
 Use, reproduction and disclosure by the US Government is
 subject to restrictions as set forth in subparagraphs (a)
 and (c) of the Commercial Computer Software - Restricted
 Rights clause in FAR 52.227-19.
  
 Gaussian, Inc.
 340 Quinnipiac St., Bldg. 40, Wallingford CT 06492
  
  
 ---------------------------------------------------------------
 Warning -- This program may not be used in any manner that
 competes with the business of Gaussian, Inc. or will provide
 assistance to any competitor of Gaussian, Inc.  The licensee
 of this program is prohibited from giving any competitor of
 Gaussian, Inc. access to this program.  By using this program,
 the user acknowledges that Gaussian, Inc. is engaged in the
 business of creating and licensing software in the field of
 computational chemistry and represents and warrants to the
 licensee that it is not a competitor of Gaussian, Inc. and that
 it will not use this program in any manner prohibited above.
 ---------------------------------------------------------------
  

 Cite this work as:
 Gaussian 03, Revision D.01,
 M. J. Frisch, G. W. Trucks, H. B. Schlegel, G. E. Scuseria, 
 M. A. Robb, J. R. Cheeseman, J. A. Montgomery, Jr., T. Vreven, 
 K. N. Kudin, J. C. Burant, J. M. Millam, S. S. Iyengar, J. Tomasi, 
 V. Barone, B. Mennucci, M. Cossi, G. Scalmani, N. Rega, 
 G. A. Petersson, H. Nakatsuji, M. Hada, M. Ehara, K. Toyota, 
 R. Fukuda, J. Hasegawa, M. Ishida, T. Nakajima, Y. Honda, O. Kitao, 
 H. Nakai, M. Klene, X. Li, J. E. Knox, H. P. Hratchian, J. B. Cross, 
 V. Bakken, C. Adamo, J. Jaramillo, R. Gomperts, R. E. Stratmann, 
 O. Yazyev, A. J. Austin, R. Cammi, C. Pomelli, J. W. Ochterski, 
 P. Y. Ayala, K. Morokuma, G. A. Voth, P. Salvador, J. J. Dannenberg, 
 V. G. Zakrzewski, S. Dapprich, A. D. Daniels, M. C. Strain, 
 O. Farkas, D. K. Malick, A. D. Rabuck, K. Raghavachari, 
 J. B. Foresman, J. V. Ortiz, Q. Cui, A. G. Baboul, S. Clifford, 
 J. Cioslowski, B. B. Stefanov, G. Liu, A. Liashenko, P. Piskorz, 
 I. Komaromi, R. L. Martin, D. J. Fox, T. Keith, M. A. Al-Laham, 
 C. Y. Peng, A. Nanayakkara, M. Challacombe, P. M. W. Gill, 
 B. Johnson, W. Chen, M. W. Wong, C. Gonzalez, and J. A. Pople, 
 Gaussian, Inc., Wallingford CT, 2004.
 
 ******************************************
 Gaussian 03:  AM64L-G03RevD.01 13-Oct-2005
                20-Nov-2009 
 ******************************************
 %chk=Butene_1-freq.chk
 %mem=1000mb
 %nproc=4
 Will use up to    4 processors via shared memory.
 -------------------------------------
 # freq b3lyp/cbsb7 nosymm iop(7/33=1)
 -------------------------------------
 1/10=4,30=1,38=1/1,3;
 2/15=1,17=6,18=5,40=1/2;
 3/5=4,6=6,7=700,11=2,16=1,25=1,30=1,74=-5/1,2,3;
 4//1;
 5/5=2,38=5/2;
 8/6=4,10=90,11=11/1;
 11/6=1,8=1,9=11,15=111,16=1,31=1/1,2,10;
 10/6=1,31=1/2;
 6/7=2,8=2,9=2,10=2,18=1,28=1/1;
 7/8=1,10=1,25=1,30=1,33=1/1,2,3,16;
 1/10=4,30=1/3;
 99//99;
 -------------
 1-butene freq
 -------------
 Symbolic Z-matrix:
 Charge =  0 Multiplicity = 1
 C
 H                    1    B1
 H                    1    B2       2    A1
 C                    1    B3       3    A2       2    D1       0
 H                    4    B4       1    A3       3    D2       0
 C                    4    B5       1    A4       3    D3       0
 H                    6    B6       4    A5       1    D4       0
 H                    6    B7       4    A6       1    D5       0
 C                    6    B8       4    A7       1    D6       0
 H                    9    B9       6    A8       4    D7       0
 H                    9    B10      6    A9       4    D8       0
 H                    9    B11      6    A10      4    D9       0
       Variables:
  B1                    1.08624                  
  B2                    1.08428                  
  B3                    1.32964                  
  B4                    1.08988                  
  B5                    1.50307                  
  B6                    1.09477                  
  B7                    1.0977                   
  B8                    1.53743                  
  B9                    1.09312                  
  B10                   1.09331                  
  B11                   1.09419                  
  A1                  116.70733                  
  A2                  121.75617                  
  A3                  118.88813                  
  A4                  125.42674                  
  A5                  109.50981                  
  A6                  109.03903                  
  A7                  112.83395                  
  A8                  110.90536                  
  A9                  111.03371                  
  A10                 111.18484                  
  D1                  179.82884                  
  D2                    0.35133                  
  D3                  179.6066                   
  D4                    3.46422                  
  D5                  119.75512                  
  D6                 -119.3234                   
  D7                   61.53993                  
  D8                 -178.18972                  
  D9                  -58.26732                  
 

 GradGradGradGradGradGradGradGradGradGradGradGradGradGradGradGradGradGrad
 Berny optimization.
 Initialization pass.
                       ----------------------------
                       !    Initial Parameters    !
                       ! (Angstroms and Degrees)  !
 ----------------------                            ----------------------
 !      Name          Value   Derivative information (Atomic Units)     !
 ------------------------------------------------------------------------
 !       B1          1.0862   calculate D2E/DX2 analytically            !
 !       B2          1.0843   calculate D2E/DX2 analytically            !
 !       B3          1.3296   calculate D2E/DX2 analytically            !
 !       B4          1.0899   calculate D2E/DX2 analytically            !
 !       B5          1.5031   calculate D2E/DX2 analytically            !
 !       B6          1.0948   calculate D2E/DX2 analytically            !
 !       B7          1.0977   calculate D2E/DX2 analytically            !
 !       B8          1.5374   calculate D2E/DX2 analytically            !
 !       B9          1.0931   calculate D2E/DX2 analytically            !
 !       B10         1.0933   calculate D2E/DX2 analytically            !
 !       B11         1.0942   calculate D2E/DX2 analytically            !
 !       A1        116.7073   calculate D2E/DX2 analytically            !
 !       A2        121.7562   calculate D2E/DX2 analytically            !
 !       A3        118.8881   calculate D2E/DX2 analytically            !
 !       A4        125.4267   calculate D2E/DX2 analytically            !
 !       A5        109.5098   calculate D2E/DX2 analytically            !
 !       A6        109.039    calculate D2E/DX2 analytically            !
 !       A7        112.834    calculate D2E/DX2 analytically            !
 !       A8        110.9054   calculate D2E/DX2 analytically            !
 !       A9        111.0337   calculate D2E/DX2 analytically            !
 !       A10       111.1848   calculate D2E/DX2 analytically            !
 !       D1        179.8288   calculate D2E/DX2 analytically            !
 !       D2          0.3513   calculate D2E/DX2 analytically            !
 !       D3        179.6066   calculate D2E/DX2 analytically            !
 !       D4          3.4642   calculate D2E/DX2 analytically            !
 !       D5        119.7551   calculate D2E/DX2 analytically            !
 !       D6       -119.3234   calculate D2E/DX2 analytically            !
 !       D7         61.5399   calculate D2E/DX2 analytically            !
 !       D8       -178.1897   calculate D2E/DX2 analytically            !
 !       D9        -58.2673   calculate D2E/DX2 analytically            !
 ------------------------------------------------------------------------
 Trust Radius=3.00D-01 FncErr=1.00D-07 GrdErr=1.00D-07
 Number of steps in this run=   2 maximum allowed number of steps=   2.
 GradGradGradGradGradGradGradGradGradGradGradGradGradGradGradGradGradGrad

                          Input orientation:                          
 ---------------------------------------------------------------------
 Center     Atomic     Atomic              Coordinates (Angstroms)
 Number     Number      Type              X           Y           Z
 ---------------------------------------------------------------------
    1          6             0        0.000000    0.000000    0.000000
    2          1             0        0.000000    0.000000    1.086236
    3          1             0        0.968606    0.000000   -0.487313
    4          6             0       -1.133260    0.003377   -0.695453
    5          1             0       -1.082916    0.000364   -1.784168
    6          6             0       -2.516458   -0.004744   -0.107318
    7          1             0       -2.449987    0.048461    0.984134
    8          1             0       -3.049535    0.897716   -0.433428
    9          6             0       -3.334270   -1.238482   -0.522970
   10          1             0       -2.857560   -2.158154   -0.173886
   11          1             0       -4.344021   -1.198746   -0.105647
   12          1             0       -3.426000   -1.303745   -1.611356
 ---------------------------------------------------------------------
                    Distance matrix (angstroms):
                    1          2          3          4          5
     1  C    0.000000
     2  H    1.086236   0.000000
     3  H    1.084284   1.847771   0.000000
     4  C    1.329641   2.111565   2.112150   0.000000
     5  H    2.087095   3.067887   2.427051   1.089883   0.000000
     6  C    2.518750   2.785167   3.505723   1.503065   2.206104
     7  H    2.640702   2.452593   3.722135   2.134670   3.087831
     8  H    3.208335   3.523483   4.117554   2.130870   2.548986
     9  C    3.595092   3.903938   4.477706   2.533063   2.862508
    10  H    3.585180   3.796207   4.404023   2.813798   3.225147
    11  H    4.507623   4.661340   5.459548   3.478786   3.858769
    12  H    4.004210   4.551289   4.719723   2.793583   2.687119
                    6          7          8          9         10
     6  C    0.000000
     7  H    1.094768   0.000000
     8  H    1.097703   1.757889   0.000000
     9  C    1.537430   2.170147   2.156949   0.000000
    10  H    2.181274   2.525129   3.072874   1.093119   0.000000
    11  H    2.183031   2.516050   2.485615   1.093314   1.770505
    12  H    2.185590   3.085066   2.525009   1.094194   1.766200
                   11         12
    11  H    0.000000
    12  H    1.766620   0.000000
 Symmetry turned off by external request.
 Stoichiometry    C4H8
 Framework group  C1[X(C4H8)]
 Deg. of freedom    30
 Full point group                 C1
 Rotational constants (GHZ):     22.6883813      4.1289298      4.0366320
 Standard basis: CBSB7 (5D, 7F)
 Integral buffers will be    131072 words long.
 Raffenetti 2 integral format.
 Two-electron integral symmetry is turned off.
   120 basis functions,   192 primitive gaussians,   124 cartesian basis functions
    16 alpha electrons       16 beta electrons
       nuclear repulsion energy       116.9901727711 Hartrees.
 NAtoms=   12 NActive=   12 NUniq=   12 SFac= 7.50D-01 NAtFMM=   80 NAOKFM=F Big=F
 One-electron integrals computed using PRISM.
 NBasis=   120 RedAO= T  NBF=   120
 NBsUse=   120 1.00D-06 NBFU=   120
 Harris functional with IExCor=  402 diagonalized for initial guess.
 ExpMin= 1.03D-01 ExpMax= 4.56D+03 ExpMxC= 6.82D+02 IAcc=1 IRadAn=         1 AccDes= 1.00D-06
 HarFok:  IExCor= 402 AccDes= 1.00D-06 IRadAn=         1 IDoV=1
 ScaDFX=  1.000000  1.000000  1.000000  1.000000
 Requested convergence on RMS density matrix=1.00D-08 within 128 cycles.
 Requested convergence on MAX density matrix=1.00D-06.
 Requested convergence on             energy=1.00D-06.
 No special actions if energy rises.
 Keep R1 integrals in memory in canonical form, NReq=    32004685.
 Integral accuracy reduced to 1.0D-05 until final iterations.
 Initial convergence to 1.0D-05 achieved.  Increase integral accuracy.
 SCF Done:  E(RB+HF-LYP) =  -157.268090431     A.U. after   13 cycles
             Convg  =    0.3079D-08             -V/T =  2.0051
             S**2   =   0.0000
 Range of M.O.s used for correlation:     1   120
 NBasis=   120 NAE=    16 NBE=    16 NFC=     0 NFV=     0
 NROrb=    120 NOA=    16 NOB=    16 NVA=   104 NVB=   104
 Symmetrizing basis deriv contribution to polar:
 IMax=3 JMax=2 DiffMx= 0.00D+00
 G2DrvN: will do   13 centers at a time, making    1 passes doing MaxLOS=2.
 FoFDir/FoFCou used for L=0 through L=2.
 DoAtom=TTTTTTTTTTTT
          Differentiating once with respect to electric field.
                with respect to dipole field.
          Differentiating once with respect to nuclear coordinates.
          Store integrals in memory, NReq=    30858744.
          There are  39 degrees of freedom in the 1st order CPHF.
    36 vectors were produced by pass  0.
 AX will form  36 AO Fock derivatives at one time.
    36 vectors were produced by pass  1.
    36 vectors were produced by pass  2.
    36 vectors were produced by pass  3.
    36 vectors were produced by pass  4.
    14 vectors were produced by pass  5.
     3 vectors were produced by pass  6.
 Inv2:  IOpt= 1 Iter= 1 AM= 1.99D-15 Conv= 1.00D-12.
 Inverted reduced A of dimension  197 with in-core refinement.
 Isotropic polarizability for W=    0.000000       46.84 Bohr**3.
 End of Minotr Frequency-dependent properties file   721 does not exist.

 **********************************************************************

            Population analysis using the SCF density.

 **********************************************************************

 Alpha  occ. eigenvalues --  -10.17201 -10.17104 -10.16163 -10.15850  -0.80067
 Alpha  occ. eigenvalues --   -0.72932  -0.62885  -0.55393  -0.47207  -0.44356
 Alpha  occ. eigenvalues --   -0.42632  -0.38450  -0.37537  -0.34532  -0.33612
 Alpha  occ. eigenvalues --   -0.26020
 Alpha virt. eigenvalues --    0.01100   0.05246   0.07081   0.07768   0.09385
 Alpha virt. eigenvalues --    0.12112   0.12735   0.13213   0.14732   0.20362
 Alpha virt. eigenvalues --    0.24761   0.29375   0.30351   0.32070   0.33005
 Alpha virt. eigenvalues --    0.34339   0.36877   0.40224   0.44554   0.46276
 Alpha virt. eigenvalues --    0.53259   0.54398   0.56662   0.57439   0.57857
 Alpha virt. eigenvalues --    0.59535   0.60771   0.61290   0.62327   0.62710
 Alpha virt. eigenvalues --    0.68043   0.69853   0.79202   0.81849   0.88568
 Alpha virt. eigenvalues --    0.92743   0.96701   1.06513   1.12537   1.13856
 Alpha virt. eigenvalues --    1.24210   1.28874   1.38016   1.40962   1.42548
 Alpha virt. eigenvalues --    1.46419   1.46983   1.49825   1.52367   1.52689
 Alpha virt. eigenvalues --    1.57205   1.58484   1.61841   1.66515   1.68607
 Alpha virt. eigenvalues --    1.68855   1.74968   1.75881   1.78086   1.84415
 Alpha virt. eigenvalues --    1.87413   1.96890   1.98879   2.00869   2.08848
 Alpha virt. eigenvalues --    2.10639   2.13677   2.15838   2.17116   2.23643
 Alpha virt. eigenvalues --    2.28522   2.34569   2.37916   2.40319   2.42990
 Alpha virt. eigenvalues --    2.49253   2.50025   2.53308   2.56157   2.57319
 Alpha virt. eigenvalues --    2.57511   2.59892   2.64936   2.68370   2.69025
 Alpha virt. eigenvalues --    2.77812   2.80859   2.81153   2.90777   3.04365
 Alpha virt. eigenvalues --    3.06169   3.28794   3.47639   3.71875   3.79463
 Alpha virt. eigenvalues --    3.79681   3.83468   3.96250   4.17809   4.32918
 Alpha virt. eigenvalues --   23.70573  23.85535  23.93439  24.28095
          Condensed to atoms (all electrons):
              1          2          3          4          5          6
     1  C    4.834730   0.410950   0.406937   0.651381  -0.037448  -0.063520
     2  H    0.410950   0.574179  -0.043169  -0.041683   0.008649  -0.012491
     3  H    0.406937  -0.043169   0.570393  -0.032240  -0.012292   0.007599
     4  C    0.651381  -0.041683  -0.032240   4.920241   0.405839   0.375189
     5  H   -0.037448   0.008649  -0.012292   0.405839   0.584512  -0.049541
     6  C   -0.063520  -0.012491   0.007599   0.375189  -0.049541   4.887976
     7  H   -0.003926   0.005720   0.000024  -0.045454   0.007658   0.410341
     8  H    0.000850   0.000335  -0.000511  -0.037378  -0.003549   0.401948
     9  C   -0.000077   0.000257  -0.000398  -0.069746  -0.001799   0.360179
    10  H    0.002609   0.000226  -0.000132  -0.000193  -0.000270  -0.038547
    11  H   -0.000212  -0.000068   0.000031   0.008215  -0.000325  -0.030066
    12  H    0.000220   0.000030   0.000011  -0.005706   0.004119  -0.036471
              7          8          9         10         11         12
     1  C   -0.003926   0.000850  -0.000077   0.002609  -0.000212   0.000220
     2  H    0.005720   0.000335   0.000257   0.000226  -0.000068   0.000030
     3  H    0.000024  -0.000511  -0.000398  -0.000132   0.000031   0.000011
     4  C   -0.045454  -0.037378  -0.069746  -0.000193   0.008215  -0.005706
     5  H    0.007658  -0.003549  -0.001799  -0.000270  -0.000325   0.004119
     6  C    0.410341   0.401948   0.360179  -0.038547  -0.030066  -0.036471
     7  H    0.592308  -0.034752  -0.035060  -0.007426  -0.005170   0.008569
     8  H   -0.034752   0.601430  -0.043448   0.009704  -0.005424  -0.006718
     9  C   -0.035060  -0.043448   4.886717   0.400143   0.397829   0.403588
    10  H   -0.007426   0.009704   0.400143   0.582673  -0.027768  -0.031988
    11  H   -0.005170  -0.005424   0.397829  -0.027768   0.585439  -0.029460
    12  H    0.008569  -0.006718   0.403588  -0.031988  -0.029460   0.589952
 Mulliken atomic charges:
              1
     1  C   -0.202494
     2  H    0.097064
     3  H    0.103747
     4  C   -0.128466
     5  H    0.094447
     6  C   -0.212595
     7  H    0.107169
     8  H    0.117511
     9  C   -0.298184
    10  H    0.110968
    11  H    0.106979
    12  H    0.103853
 Sum of Mulliken charges=   0.00000
 Atomic charges with hydrogens summed into heavy atoms:
              1
     1  C   -0.001683
     2  H    0.000000
     3  H    0.000000
     4  C   -0.034019
     5  H    0.000000
     6  C    0.012085
     7  H    0.000000
     8  H    0.000000
     9  C    0.023617
    10  H    0.000000
    11  H    0.000000
    12  H    0.000000
 Sum of Mulliken charges=   0.00000
 APT atomic charges:
              1
     1  C   -0.116953
     2  H    0.023173
     3  H    0.024036
     4  C    0.049137
     5  H   -0.001172
     6  C    0.102876
     7  H   -0.041858
     8  H   -0.046947
     9  C    0.088415
    10  H   -0.020321
    11  H   -0.037068
    12  H   -0.023319
 Sum of APT charges=   0.00000
 APT Atomic charges with hydrogens summed into heavy atoms:
              1
     1  C   -0.069743
     2  H    0.000000
     3  H    0.000000
     4  C    0.047965
     5  H    0.000000
     6  C    0.014071
     7  H    0.000000
     8  H    0.000000
     9  C    0.007707
    10  H    0.000000
    11  H    0.000000
    12  H    0.000000
 Sum of APT charges=   0.00000
 Electronic spatial extent (au):  <R**2>=   771.2224
 Charge=     0.0000 electrons
 Dipole moment (field-independent basis, Debye):
    X=    -0.3505    Y=     0.0018    Z=    -0.0543  Tot=     0.3547
 Quadrupole moment (field-independent basis, Debye-Ang):
   XX=   -25.0919   YY=   -28.7339   ZZ=   -25.7139
   XY=    -0.1900   XZ=     0.1685   YZ=    -0.1657
 Traceless Quadrupole moment (field-independent basis, Debye-Ang):
   XX=     1.4214   YY=    -2.2207   ZZ=     0.7993
   XY=    -0.1900   XZ=     0.1685   YZ=    -0.1657
 Octapole moment (field-independent basis, Debye-Ang**2):
  XXX=   142.6810  YYY=    28.5461  ZZZ=    25.2266  XYY=    49.9013
  XXY=    10.6311  XXZ=     8.2342  XZZ=    47.6709  YZZ=     9.4694
  YYZ=     9.5342  XYZ=     0.5423
 Hexadecapole moment (field-independent basis, Debye-Ang**3):
 XXXX=  -862.2448 YYYY=  -121.4462 ZZZZ=   -85.4915 XXXY=  -101.2115
 XXXZ=   -63.0612 YYYX=   -98.7602 YYYZ=   -17.2279 ZZZX=   -56.9264
 ZZZY=   -14.9448 XXYY=  -170.1075 XXZZ=  -159.8764 YYZZ=   -36.8780
 XXYZ=    -7.4554 YYXZ=   -20.7353 ZZXY=   -32.0268
 N-N= 1.169901727711D+02 E-N=-5.977677370294D+02  KE= 1.564714874736D+02
  Exact polarizability:  60.264   3.085  35.736   5.096   0.736  44.518
 Approx polarizability:  79.238   0.594  47.871  10.659   0.047  64.167
 Use density number 0.
 Entering OneElI...
 Calculate overlap and kinetic energy integrals
    NBasis = 124  MinDer = 2  MaxDer = 2
 Requested accuracy = 0.1000D-12
 PrsmSu:  NPrtUS=   1 ThrOK=F
 PRISM was handed   130918545 working-precision words and  1378 shell-pairs
 Entering OneElI...
 Calculate potential energy integrals
    NBasis = 124  MinDer = 2  MaxDer = 2
 Requested accuracy = 0.1000D-12
 PrsmSu:  NPrtUS=   4 ThrOK=T
 PRISM was handed    32711196 working-precision words and  1333 shell-pairs
 PRISM was handed    32711196 working-precision words and  1333 shell-pairs
 PRISM was handed    32711196 working-precision words and  1333 shell-pairs
 PRISM was handed    32711196 working-precision words and  1333 shell-pairs
 Polarizability after L701:
                1             2             3
      1  0.602643D+02
      2  0.308478D+01  0.357365D+02
      3  0.509584D+01  0.736309D+00  0.445177D+02
 Dipole Derivatives after L701:
               1            2            3            4            5
      1-0.127973D+00-0.225687D-02-0.800474D-01 0.465145D-01 0.323689D-03
      2-0.163599D-01-0.313560D+00 0.153285D-01 0.174684D-02 0.139212D+00
      3-0.746809D-01-0.765105D-03 0.906758D-01 0.455855D-01-0.215373D-03
               6            7            8            9           10
      1-0.132212D-01-0.970769D-01 0.330023D-02 0.815362D-01 0.258338D+00
      2-0.196642D-02-0.726944D-02 0.152319D+00-0.611889D-03-0.977954D-02
      3-0.116207D+00 0.453062D-01 0.147095D-02 0.168671D-01 0.254107D-01
              11           12           13           14           15
      1-0.419900D-01-0.725024D-01 0.842984D-02 0.137289D-01 0.191032D-01
      2-0.242237D+00-0.327157D-01-0.220203D-02 0.131783D+00 0.310283D-02
      3-0.487507D-02 0.131309D+00 0.696288D-03-0.685097D-02-0.143729D+00
              16           17           18           19           20
      1 0.251895D-01-0.262561D-01-0.768509D-02 0.591678D-02-0.261303D-01
      2-0.138637D-01 0.184365D+00-0.148724D-01-0.276097D-01 0.325308D-01
      3 0.200423D-01-0.230990D-01 0.990737D-01-0.456850D-01-0.145214D-01
              21           22           23           24           25
      1 0.153144D-01-0.746432D-01 0.731980D-01-0.293268D-02 0.551400D-01
      2-0.361828D-01 0.657359D-01-0.118021D+00 0.675586D-01-0.344742D-01
      3-0.164023D+00-0.286353D-01 0.382809D-01 0.518244D-01-0.138007D-01
              26           27           28           29           30
      1 0.159455D-01 0.558468D-01 0.190426D-01 0.286057D-01-0.380750D-01
      2 0.756844D-01-0.905439D-02 0.940667D-01-0.115214D+00 0.580143D-01
      3-0.736353D-02 0.134421D+00-0.406965D-01 0.356604D-01 0.352088D-01
              31           32           33           34           35
      1-0.185099D+00-0.220028D-01 0.840902D-01 0.662210D-01-0.164660D-01
      2-0.344076D-01 0.395584D-01-0.937247D-02-0.155833D-01 0.335798D-01
      3 0.619652D-01-0.243645D-01 0.343359D-01 0.449229D-02 0.664262D-02
              36
      1-0.414269D-01
      2-0.392282D-01
      3-0.169758D+00
 Hessian after L701:
                1             2             3             4             5
      1  0.548672D+01
      2 -0.116253D+00  0.161558D+02
      3 -0.261640D+01 -0.186652D-01  0.920069D+01
      4 -0.317260D+01 -0.262999D-02  0.131298D+00  0.303911D+01
      5 -0.338822D-02 -0.307786D+01  0.129935D-01 -0.144081D-01  0.301814D+01
      6 -0.726045D-01 -0.234642D-02 -0.787432D+00 -0.252996D+00 -0.208881D-01
      7 -0.124574D+01 -0.895503D-02 -0.949902D+00  0.342366D-01  0.625972D-03
      8  0.553157D-03 -0.296134D+01 -0.902426D-03 -0.327626D-03  0.837877D-01
      9 -0.838223D+00  0.312171D-02 -0.258308D+01  0.110498D+00 -0.729020D-03
     10 -0.187601D+01 -0.436805D-01  0.340047D+01  0.523934D-01  0.175564D-02
     11 -0.911646D-01 -0.999379D+01 -0.355671D-01  0.259884D-02  0.369929D-01
     12  0.347955D+01 -0.930852D-02 -0.563178D+01 -0.371004D-01  0.880664D-03
     13  0.834187D-02  0.854250D-03 -0.328309D-01 -0.130367D-01  0.504055D-04
     14  0.382083D-02  0.245109D-01  0.472199D-02 -0.296123D-03 -0.116750D-01
     15  0.305428D-01  0.131585D-02  0.139191D+00  0.443601D-01  0.544392D-03
     16  0.445458D+00  0.255062D-01 -0.315847D-01 -0.165717D-01 -0.315180D-04
     17  0.757316D-01 -0.640714D-01  0.155432D-01  0.554092D-02 -0.164687D-01
     18 -0.138996D-01  0.591681D-02 -0.138979D+00 -0.119643D-01 -0.222535D-03
     19  0.256286D-01  0.640789D-02 -0.144390D-01  0.445599D-01 -0.854025D-03
     20  0.459969D-02 -0.291752D-01 -0.173910D-02 -0.216108D-02 -0.198296D-01
     21 -0.706676D-01 -0.247312D-02 -0.124677D-01 -0.109362D-01  0.123061D-03
     22  0.625364D-01 -0.621637D-01  0.202068D-01  0.820289D-02 -0.193183D-02
     23 -0.856425D-01  0.102842D-01 -0.163368D-01 -0.634329D-02 -0.149977D-02
     24  0.228822D-01 -0.116952D-01 -0.248223D-01  0.598391D-02 -0.169562D-02
     25  0.184550D+00  0.155585D+00  0.668564D-01  0.171539D-01  0.128067D-01
     26  0.131460D+00 -0.625725D-01  0.249661D-01  0.936671D-02 -0.119102D-01
     27  0.537191D-01  0.267386D-01 -0.132419D+00  0.156428D-01  0.681591D-02
     28  0.239508D-01  0.258417D-01  0.490857D-02  0.145960D-02  0.316420D-02
     29  0.642143D-01  0.137461D-01  0.731223D-02  0.703384D-02  0.268256D-02
     30 -0.746854D-02 -0.430664D-02 -0.261949D-01  0.118954D-02  0.925433D-03
     31  0.349939D-01  0.716133D-02  0.297700D-02  0.360222D-02  0.113620D-02
     32  0.268520D-02 -0.727144D-02  0.116411D-02  0.440038D-03 -0.128321D-02
     33 -0.811517D-02 -0.113804D-02 -0.938783D-02 -0.388099D-03 -0.250105D-03
     34  0.221625D-01  0.123260D-01  0.184385D-01  0.148687D-02  0.107460D-02
     35  0.133836D-01 -0.823509D-02  0.650960D-02  0.118589D-02 -0.107174D-02
     36  0.406849D-01  0.128402D-01  0.668273D-02  0.441220D-02  0.150245D-02
                6             7             8             9            10
      6  0.659315D+00
      7  0.113740D+00  0.902281D+00
      8  0.103673D-02 -0.765511D-02  0.290356D+01
      9 -0.811348D-01  0.887519D+00  0.433832D-03  0.269464D+01
     10  0.770150D-01  0.132901D+00 -0.128586D-02 -0.702291D-01  0.537363D+01
     11  0.216576D-02 -0.114177D-02  0.366608D-02  0.477845D-03 -0.300550D+00
     12  0.109727D+00  0.768837D-02 -0.391245D-03  0.196315D-01 -0.156717D+01
     13  0.341905D-01 -0.351343D-01 -0.353199D-03 -0.340400D-01 -0.339170D+01
     14 -0.657161D-03  0.697907D-03  0.943055D-02  0.286358D-03 -0.599185D-02
     15  0.110804D+00 -0.249364D-01 -0.391849D-03 -0.733831D-02 -0.134329D+00
     16  0.164192D-01  0.162339D+00 -0.321225D-03 -0.354462D-01 -0.678285D+00
     17  0.114391D-01  0.950655D-02 -0.261597D-01 -0.335533D-02  0.111308D+00
     18  0.100568D-01 -0.222279D-01  0.492737D-04 -0.369065D-01 -0.168987D+01
     19  0.165470D-01  0.795712D-02 -0.172450D-03 -0.466315D-02  0.612687D-02
     20 -0.768878D-03 -0.411954D-03 -0.286867D-02  0.194650D-03  0.114430D-01
     21 -0.326192D-01 -0.161682D-01  0.113337D-03  0.544760D-02  0.287485D-01
     22  0.143446D-01  0.295326D-02 -0.251127D-02 -0.327469D-02  0.284566D-01
     23 -0.113886D-01 -0.757539D-02 -0.617351D-03  0.302661D-02 -0.585358D-01
     24  0.456481D-02  0.302861D-02  0.274479D-03 -0.118544D-02  0.421394D-01
     25  0.361906D-01  0.236889D-01  0.890741D-02 -0.791033D-02  0.220874D+00
     26  0.633227D-02  0.299625D-02 -0.887521D-02  0.596209D-03  0.183158D+00
     27  0.265631D-02 -0.178991D-02 -0.667836D-03 -0.704005D-02 -0.580116D-01
     28  0.198472D-02 -0.637772D-03  0.615463D-03  0.404317D-04 -0.296674D-02
     29  0.124152D-01  0.944784D-02  0.447333D-03 -0.356619D-02  0.419804D-01
     30 -0.341288D-02 -0.339544D-02 -0.690915D-03  0.126084D-03 -0.162831D-01
     31  0.983401D-02  0.993445D-02  0.145513D-02 -0.365603D-02  0.129505D+00
     32  0.519028D-03  0.480050D-03 -0.115266D-03 -0.291763D-03  0.527022D-01
     33 -0.291666D-02 -0.302535D-02  0.818117D-04  0.302477D-03 -0.347837D-01
     34  0.533418D-02  0.521879D-02  0.109559D-02 -0.614411D-03  0.507222D-02
     35  0.214100D-02  0.198469D-02 -0.916243D-03 -0.194912D-03  0.769671D-02
     36  0.103929D-01  0.946904D-02  0.105481D-02 -0.346482D-02  0.223043D-01
               11            12            13            14            15
     11  0.181787D+02
     12  0.119023D+00  0.109424D+02
     13 -0.828446D-02 -0.157578D+00  0.337860D+01
     14 -0.331047D+01 -0.131489D-01 -0.526930D-01  0.324691D+01
     15  0.291539D-01 -0.976768D+00  0.154857D+00  0.269705D-01  0.633201D+00
     16  0.127025D+00 -0.174860D+01  0.295314D-01 -0.256346D-02  0.590427D-01
     17 -0.508910D+01 -0.466737D-01  0.961588D-02  0.748020D-01 -0.208173D-01
     18 -0.349847D-01 -0.441431D+01  0.100363D+00  0.400078D-02  0.166414D-01
     19  0.573145D-02  0.605547D-01 -0.625034D-02 -0.401422D-03 -0.460124D-01
     20  0.586401D-01 -0.700246D-02 -0.221901D-02 -0.203750D-01  0.329207D-02
     21 -0.163555D-02  0.106071D+00 -0.459502D-01  0.636424D-04  0.943160D-01
     22 -0.347826D-01  0.220666D-01 -0.654140D-02  0.252938D-02 -0.172968D-02
     23  0.103600D+00 -0.204478D-01  0.257356D-02  0.225787D-02  0.906102D-02
     24 -0.312323D-01  0.273226D-01  0.864404D-02 -0.353073D-02 -0.411558D-02
     25  0.215451D+00 -0.237626D-01  0.916676D-02  0.292506D-01 -0.540179D-01
     26  0.353333D-01  0.609688D-03  0.224302D-01 -0.158564D-01 -0.239429D-01
     27 -0.287588D-01 -0.116062D+00 -0.284031D-01 -0.178515D-01  0.937128D-02
     28  0.151172D-01 -0.739063D-02 -0.217788D-02  0.149027D-02 -0.136335D-03
     29  0.160124D-01 -0.128702D-01  0.539159D-02  0.383612D-02 -0.164428D-01
     30 -0.206980D-01 -0.275772D-01 -0.350477D-02 -0.435924D-02  0.613864D-02
     31  0.578968D-01 -0.350903D-01  0.340679D-02  0.164751D-02 -0.127902D-01
     32 -0.233765D-01 -0.124433D-01  0.577727D-03 -0.142069D-02 -0.102623D-02
     33 -0.137580D-01 -0.340556D-01 -0.269646D-02 -0.797586D-03  0.453938D-02
     34  0.121032D-01  0.682995D-02  0.257869D-01  0.225094D-01 -0.148503D-01
     35 -0.162337D-01  0.177230D-02  0.220560D-01 -0.195876D-02 -0.771667D-02
     36  0.158136D-01 -0.461303D-02  0.694826D-02  0.430187D-02 -0.259808D-01
               16            17            18            19            20
     16  0.922818D+01
     17 -0.128303D+01  0.117000D+02
     18  0.621332D+00 -0.565007D+00  0.128542D+02
     19 -0.341300D+01 -0.164970D-02  0.550644D-01  0.327218D+01
     20  0.670977D-02 -0.337653D+01  0.179522D+00 -0.137970D-01  0.338064D+01
     21  0.151909D+00  0.152584D+00 -0.107240D+01 -0.348066D-01 -0.240831D+00
     22 -0.277167D+01 -0.921891D+00  0.299379D+00  0.543821D-01  0.209448D-01
     23 -0.892204D+00 -0.171508D+01 -0.510575D+00  0.167328D-01  0.427118D-01
     24  0.281195D+00 -0.490185D+00 -0.312244D+01 -0.452944D-01  0.716194D-01
     25 -0.315609D+01  0.205401D+01  0.680644D+00  0.170949D-01 -0.213951D-01
     26  0.203715D+01 -0.156506D+01  0.970365D+00 -0.894580D-02 -0.401620D-02
     27  0.682948D+00  0.982603D+00 -0.425308D+01 -0.610564D-02 -0.237628D-01
     28  0.374672D-01 -0.738749D-01  0.908485D-02  0.969298D-02 -0.952614D-02
     29 -0.917365D-02  0.714259D-01 -0.365485D-01 -0.524353D-02 -0.234627D-01
     30  0.494367D-02 -0.487003D-01  0.398645D-01 -0.220355D-02 -0.191514D-01
     31  0.101401D+00  0.217045D-01 -0.193633D-01 -0.521894D-02 -0.822748D-02
     32 -0.140345D-01 -0.250363D-02  0.102409D-01 -0.909751D-02 -0.156020D-02
     33 -0.436011D-01 -0.592942D-02  0.124235D-01 -0.910694D-02 -0.567999D-02
     34  0.312391D-01 -0.697057D-02 -0.853848D-02 -0.131597D-01  0.140405D-01
     35  0.496611D-02  0.879766D-02 -0.227573D-01  0.112893D-01 -0.417596D-02
     36  0.414434D-01  0.184981D-01  0.104930D+00  0.304658D-01  0.443076D-01
               21            22            23            24            25
     21  0.739386D+00
     22 -0.388283D-01  0.258192D+01
     23  0.523002D-01  0.110445D+01  0.144914D+01
     24 -0.197633D-01 -0.319557D+00  0.543630D+00  0.310703D+01
     25  0.381862D-02  0.607478D-01 -0.496981D-01  0.595648D-02  0.963505D+01
     26  0.670776D-02 -0.620117D-01  0.227080D-01 -0.436708D-01 -0.153516D+01
     27  0.110530D+00  0.987074D-02 -0.217899D-01  0.496288D-01 -0.455431D+00
     28 -0.999576D-02 -0.243670D-01 -0.158260D-01  0.143911D-02 -0.274108D+01
     29 -0.957016D-02 -0.246405D-01  0.117866D+00 -0.178322D-01 -0.873497D+00
     30 -0.122401D-02  0.192215D-02 -0.189765D-01 -0.219116D-01  0.298653D+00
     31  0.541326D-02 -0.466995D-02 -0.117470D-02 -0.285271D-02 -0.118168D+01
     32 -0.473491D-02 -0.126149D-01 -0.114723D-01  0.205004D-02 -0.828794D-03
     33 -0.203037D-02  0.333956D-02 -0.218752D-02  0.691195D-02 -0.709931D+00
     34  0.374638D-01  0.804584D-02 -0.675501D-02 -0.356402D-02 -0.308947D+01
     35  0.473528D-01 -0.537508D-02 -0.198967D-01 -0.177319D-01  0.457119D-02
     36  0.847529D-01 -0.773980D-02 -0.631561D-02 -0.122126D-02  0.158934D+00
               26            27            28            29            30
     26  0.918630D+01
     27 -0.542841D+00  0.108590D+02
     28 -0.740548D+00  0.267653D+00  0.266909D+01
     29 -0.149718D+01 -0.597552D+00  0.728819D+00  0.123199D+01
     30 -0.565205D+00 -0.290341D+01 -0.238036D+00  0.634936D+00  0.290571D+01
     31 -0.473766D-01 -0.746348D+00 -0.136753D-01  0.362095D-01  0.111688D-01
     32 -0.299445D+01 -0.413741D-02  0.547105D-01  0.245768D-01 -0.174069D-01
     33  0.148883D-01 -0.269722D+01 -0.145156D-01 -0.142398D-03  0.474154D-01
     34  0.748153D-02  0.266256D+00  0.432443D-01  0.194580D-01 -0.469851D-01
     35 -0.308443D+01  0.221204D+00  0.100168D-01  0.380634D-01  0.636334D-01
     36  0.151195D+00 -0.921966D+00 -0.150360D-01  0.398609D-01 -0.155266D-01
               31            32            33            34            35
     31  0.888132D+00
     32 -0.768881D-01  0.297469D+01
     33  0.759506D+00  0.245479D-01  0.269060D+01
     34  0.342666D-01  0.186812D-02  0.633173D-01  0.292610D+01
     35  0.645604D-02  0.441815D-01 -0.963492D-02 -0.782313D-01  0.304587D+01
     36  0.312013D-01  0.151843D-02 -0.165840D-01 -0.323087D+00 -0.284577D+00
               36
     36  0.782598D+00
 ReadGW:  IGet=0 IStart=          90 Next=        5402 LGW=        5312.
 ICntrl=12127.
 Symmetry not used in FoFDir.
 MinBra= 0 MaxBra= 2 Meth= 1.
 IRaf=       0 NMat=   1 IRICut=       1 DoRegI=T DoRafI=F ISym2E= 0 JSym2E=0.
 PrsmSu:  NPrtUS=   4 ThrOK=T
 PRISM was handed    32704463 working-precision words and  1353 shell-pairs
 PRISM was handed    32704463 working-precision words and  1353 shell-pairs
 PRISM was handed    32704463 working-precision words and  1353 shell-pairs
 PRISM was handed    32704463 working-precision words and  1353 shell-pairs
 Pruned (  75, 302) grid will be used in CalDFT.
 CkSvGd:  ISavGI=        -1 IRadAn=       4 IRASav=       4 ISavGd=        -1.
 CalDSu:  NPrtUS=   4 ThrOK=T
 IPart= 0 IRanGd=          0 ScrnBf=T ScrnGd=T RCrit=4.00D+00 DoMicB=T.
 IPart= 1 IRanGd=          0 ScrnBf=T ScrnGd=T RCrit=4.00D+00 DoMicB=T.
 IPart= 2 IRanGd=          0 ScrnBf=T ScrnGd=T RCrit=4.00D+00 DoMicB=T.
 IPart= 3 IRanGd=          0 ScrnBf=T ScrnGd=T RCrit=4.00D+00 DoMicB=T.
 CutRad = 1000.00    CtRdIn =    0.00    XCrit =  15.00   ICut = 0
 CutRad = 1000.00    CtRdIn =    0.00    XCrit =  15.00   ICut = 0
 CutRad = 1000.00    CtRdIn =    0.00    XCrit =  15.00   ICut = 0
 CutRad = 1000.00    CtRdIn =    0.00    XCrit =  15.00   ICut = 0
 IPart= 0        21850 of        24212 points in      47 batches and      138 microbatches, Max-NSigAt=      12 Max-NSgAt2=      12
 IPart= 3        21572 of        23888 points in      48 batches and      148 microbatches, Max-NSigAt=      12 Max-NSgAt2=      12
 IPart= 1        22249 of        25572 points in      53 batches and      135 microbatches, Max-NSigAt=      12 Max-NSgAt2=      12
 IPart= 2        19472 of        21812 points in      46 batches and      184 microbatches, Max-NSigAt=      12 Max-NSgAt2=      12
 Polarizability after L703:
                1             2             3
      1  0.602643D+02
      2  0.308478D+01  0.357365D+02
      3  0.509584D+01  0.736309D+00  0.445177D+02
 Dipole Derivatives after L703:
               1            2            3            4            5
      1-0.127973D+00-0.225687D-02-0.800474D-01 0.465145D-01 0.323689D-03
      2-0.163599D-01-0.313560D+00 0.153285D-01 0.174684D-02 0.139212D+00
      3-0.746809D-01-0.765105D-03 0.906758D-01 0.455855D-01-0.215373D-03
               6            7            8            9           10
      1-0.132212D-01-0.970769D-01 0.330023D-02 0.815362D-01 0.258338D+00
      2-0.196642D-02-0.726944D-02 0.152319D+00-0.611889D-03-0.977954D-02
      3-0.116207D+00 0.453062D-01 0.147095D-02 0.168671D-01 0.254107D-01
              11           12           13           14           15
      1-0.419900D-01-0.725024D-01 0.842984D-02 0.137289D-01 0.191032D-01
      2-0.242237D+00-0.327157D-01-0.220203D-02 0.131783D+00 0.310283D-02
      3-0.487507D-02 0.131309D+00 0.696288D-03-0.685097D-02-0.143729D+00
              16           17           18           19           20
      1 0.251895D-01-0.262561D-01-0.768509D-02 0.591678D-02-0.261303D-01
      2-0.138637D-01 0.184365D+00-0.148724D-01-0.276097D-01 0.325308D-01
      3 0.200423D-01-0.230990D-01 0.990737D-01-0.456850D-01-0.145214D-01
              21           22           23           24           25
      1 0.153144D-01-0.746432D-01 0.731980D-01-0.293268D-02 0.551400D-01
      2-0.361828D-01 0.657359D-01-0.118021D+00 0.675586D-01-0.344742D-01
      3-0.164023D+00-0.286353D-01 0.382809D-01 0.518244D-01-0.138007D-01
              26           27           28           29           30
      1 0.159455D-01 0.558468D-01 0.190426D-01 0.286057D-01-0.380750D-01
      2 0.756844D-01-0.905439D-02 0.940667D-01-0.115214D+00 0.580143D-01
      3-0.736353D-02 0.134421D+00-0.406965D-01 0.356604D-01 0.352088D-01
              31           32           33           34           35
      1-0.185099D+00-0.220028D-01 0.840902D-01 0.662210D-01-0.164660D-01
      2-0.344076D-01 0.395584D-01-0.937247D-02-0.155833D-01 0.335798D-01
      3 0.619652D-01-0.243645D-01 0.343359D-01 0.449229D-02 0.664262D-02
              36
      1-0.414269D-01
      2-0.392282D-01
      3-0.169758D+00
 Hessian after L703:
                1             2             3             4             5
      1  0.792832D+00
      2 -0.686722D-03  0.105330D+00
      3  0.925673D-01 -0.569411D-03  0.685124D+00
      4 -0.567066D-01 -0.382896D-05  0.662005D-02  0.528810D-01
      5 -0.131664D-03 -0.349538D-01 -0.152836D-04 -0.590727D-04  0.234613D-01
      6  0.240022D-02  0.121171D-03 -0.328387D+00 -0.581940D-04 -0.223119D-04
      7 -0.274706D+00  0.926811D-04  0.112667D+00  0.253604D-02 -0.177344D-05
      8 -0.650607D-04 -0.336542D-01 -0.589885D-04  0.257570D-04  0.189861D-02
      9  0.117715D+00  0.225984D-04 -0.116637D+00  0.248485D-01  0.209801D-04
     10 -0.430138D+00  0.330460D-03 -0.199035D+00  0.328959D-02  0.950323D-05
     11  0.272864D-03 -0.499931D-01  0.547228D-03  0.412678D-04  0.598098D-02
     12 -0.200973D+00  0.459117D-03 -0.236415D+00 -0.281127D-01 -0.724088D-04
     13  0.288159D-02  0.161505D-04 -0.301276D-01 -0.370814D-02  0.973408D-05
     14  0.130018D-03  0.642316D-02  0.268438D-03  0.848416D-04  0.117856D-01
     15  0.241447D-02 -0.120517D-04 -0.160039D-01 -0.265854D-02 -0.428161D-04
     16 -0.320902D-01  0.674160D-03  0.908904D-02  0.178035D-02  0.156110D-03
     17  0.198686D-04  0.700943D-02  0.212452D-03 -0.395003D-04 -0.841959D-02
     18 -0.150153D-01  0.136042D-03  0.112008D-01 -0.198191D-02  0.865208D-04
     19  0.169844D-02 -0.281537D-04  0.120444D-02 -0.820928D-04  0.446405D-04
     20 -0.119212D-03 -0.458157D-03 -0.125143D-03  0.365136D-04  0.216243D-03
     21 -0.173183D-02  0.334372D-04  0.156363D-02  0.909485D-03  0.186842D-04
     22 -0.229562D-02 -0.280716D-03  0.359585D-02  0.665677D-04  0.141504D-02
     23 -0.428432D-03  0.364843D-04 -0.810903D-03 -0.730017D-04  0.681388D-04
     24  0.111762D-02  0.240025D-03 -0.279186D-03  0.155153D-03  0.174274D-03
     25 -0.980256D-03 -0.245845D-03  0.282177D-02 -0.960307D-04 -0.110624D-02
     26  0.336908D-02 -0.623727D-03 -0.862528D-04 -0.943502D-04  0.354866D-03
     27  0.205989D-02 -0.539046D-03 -0.968924D-03  0.883101D-04  0.133216D-03
     28 -0.680017D-05  0.392573D-03 -0.409835D-03 -0.956631D-05 -0.100365D-03
     29 -0.860636D-03  0.556625D-03 -0.162524D-03 -0.167633D-04 -0.709526D-05
     30  0.151665D-03 -0.105177D-04  0.534604D-04 -0.845799D-05  0.206240D-04
     31 -0.274827D-03 -0.294646D-03  0.787069D-03 -0.128778D-04 -0.179939D-03
     32 -0.131202D-02  0.356628D-03  0.643664D-03  0.543728D-05 -0.303186D-03
     33 -0.391206D-03  0.750859D-04  0.351542D-03  0.201176D-04 -0.190657D-03
     34 -0.213980D-03  0.338887D-04  0.220075D-03  0.617533D-04 -0.559671D-04
     35 -0.188080D-03 -0.296078D-04  0.156723D-03  0.926999D-04 -0.819963D-04
     36 -0.314418D-03  0.435500D-04  0.398202D-03  0.178248D-03 -0.110821D-03
                6             7             8             9            10
      6  0.351380D+00
      7 -0.219806D-02  0.293997D+00
      8 -0.216107D-04 -0.543691D-04  0.233625D-01
      9 -0.908027D-02 -0.121988D+00 -0.288772D-04  0.114720D+00
     10  0.179554D-02 -0.210607D-01  0.390948D-03 -0.182611D-01  0.733710D+00
     11 -0.102810D-03 -0.726596D-04  0.304419D-02 -0.270788D-04  0.195083D-02
     12 -0.162971D-01  0.153618D-01  0.714282D-04  0.101240D-01  0.141435D+00
     13 -0.282119D-02  0.102201D-02 -0.207660D-04  0.144367D-03 -0.567883D-01
     14 -0.282314D-04 -0.299962D-04 -0.784951D-02 -0.221483D-04 -0.149123D-04
     15 -0.119186D-04 -0.341406D-03  0.123663D-04  0.133669D-02  0.115260D-01
     16  0.192176D-02 -0.514415D-03 -0.668141D-03 -0.149689D-02 -0.184889D+00
     17  0.425718D-04  0.776497D-04  0.138419D-01  0.105874D-05  0.254518D-02
     18  0.111758D-02 -0.369141D-02  0.691971D-04 -0.165990D-02  0.519919D-01
     19 -0.106997D-02  0.390576D-03  0.766337D-05 -0.294407D-03  0.149909D-03
     20 -0.229478D-05 -0.319904D-04 -0.187939D-03  0.361815D-04  0.980855D-04
     21  0.837313D-03 -0.626427D-04 -0.540914D-04  0.514123D-03  0.149419D-03
     22  0.461783D-04 -0.858368D-03 -0.253299D-02 -0.297874D-03 -0.206823D-01
     23 -0.223750D-04 -0.721404D-05 -0.335083D-03  0.933976D-04  0.673715D-03
     24  0.196541D-03  0.106571D-03  0.574657D-03  0.340832D-03  0.601133D-02
     25 -0.105768D-03 -0.650308D-03  0.242671D-02 -0.331959D-03 -0.260913D-01
     26  0.437869D-04  0.442454D-03 -0.464054D-03  0.697230D-04 -0.785588D-02
     27  0.260830D-03  0.300678D-03 -0.825053D-03  0.443131D-03  0.332585D-02
     28 -0.274712D-04  0.438333D-04  0.212123D-04  0.414384D-05  0.202751D-02
     29 -0.531334D-04 -0.810426D-04 -0.214576D-03 -0.550813D-04  0.212475D-02
     30 -0.521108D-04  0.195621D-04 -0.562035D-04 -0.403600D-04  0.233865D-03
     31 -0.509186D-04 -0.154095D-03  0.478004D-03 -0.922989D-04 -0.677879D-03
     32 -0.698317D-04 -0.296503D-03  0.569833D-03 -0.171059D-03 -0.153119D-02
     33  0.269232D-05 -0.892136D-04  0.246301D-03 -0.595573D-04 -0.133359D-03
     34  0.167885D-03 -0.458215D-04 -0.896703D-05  0.508557D-04  0.115076D-02
     35  0.115069D-03 -0.372366D-04 -0.116758D-04  0.603054D-04  0.127851D-02
     36  0.333432D-04 -0.851764D-04  0.708746D-04 -0.179842D-05  0.960923D-03
               11            12            13            14            15
     11  0.154963D+00
     12  0.131207D-02  0.678698D+00
     13 -0.819564D-04  0.157837D-01  0.595560D-01
     14 -0.411233D-01 -0.314042D-03 -0.224388D-03  0.260627D-01
     15  0.223684D-04 -0.317363D+00 -0.126944D-01  0.554508D-03  0.341485D+00
     16  0.317748D-02  0.471622D-01 -0.211534D-03 -0.169594D-03 -0.115636D-02
     17 -0.728357D-01 -0.454738D-03 -0.496413D-03  0.228635D-02 -0.422275D-03
     18 -0.807477D-03 -0.114035D+00  0.288305D-01 -0.734081D-03 -0.112162D-01
     19  0.653630D-03  0.331079D-01 -0.510419D-02  0.977258D-04  0.225008D-02
     20 -0.459158D-03 -0.122684D-03 -0.187943D-03  0.166689D-02 -0.257346D-03
     21  0.518313D-04 -0.157703D-01  0.225593D-02 -0.144193D-03  0.371857D-03
     22  0.247198D-01 -0.114081D-01  0.908498D-03 -0.697141D-03  0.479735D-03
     23  0.193955D-02 -0.266537D-03  0.492447D-03  0.269528D-03 -0.335772D-03
     24 -0.119264D-01  0.502495D-02 -0.712189D-03  0.175892D-03  0.341757D-03
     25 -0.272205D-01 -0.888198D-02  0.161198D-02  0.828607D-03 -0.456580D-03
     26  0.728894D-03  0.297819D-02  0.855116D-03  0.590581D-03 -0.285703D-03
     27  0.117045D-01  0.594308D-02  0.534996D-03  0.387863D-03  0.408856D-03
     28 -0.537911D-03  0.678377D-03 -0.345525D-04 -0.385679D-04  0.166421D-04
     29  0.110030D-02 -0.101510D-03 -0.120102D-03 -0.154055D-03  0.802359D-04
     30  0.406128D-03 -0.913561D-04 -0.478468D-04  0.810067D-04 -0.489271D-04
     31 -0.359930D-02 -0.263301D-02  0.125684D-03  0.157439D-03  0.105276D-03
     32 -0.435462D-02 -0.308437D-02  0.131688D-03 -0.234811D-04  0.181461D-03
     33 -0.153773D-02 -0.261444D-03 -0.382293D-03 -0.125254D-03  0.298667D-03
     34  0.696469D-03 -0.152027D-02 -0.259023D-03 -0.124031D-03  0.515037D-03
     35  0.100909D-02 -0.404525D-03 -0.373568D-03  0.655985D-04  0.505024D-03
     36  0.357378D-03  0.443137D-03 -0.763979D-03 -0.997580D-04  0.401183D-03
               16            17            18            19            20
     16  0.476637D+00
     17 -0.449271D-01  0.483624D+00
     18  0.139070D-01 -0.211618D-01  0.578682D+00
     19 -0.492790D-01  0.797981D-03 -0.182262D-01  0.561301D-01
     20  0.109767D-02 -0.486611D-01 -0.790533D-02  0.292497D-02  0.509301D-01
     21 -0.155169D-01 -0.881962D-02 -0.299855D+00  0.169837D-01  0.110649D-01
     22 -0.102406D+00  0.102082D+00 -0.364962D-01 -0.132975D-02  0.106754D-02
     23  0.991086D-01 -0.209140D+00  0.628160D-01 -0.106391D-02  0.126998D-02
     24 -0.348239D-01  0.624585D-01 -0.740505D-01 -0.158156D-01  0.262931D-01
     25 -0.993366D-01 -0.448163D-01 -0.144323D-01 -0.199088D-02 -0.288994D-02
     26 -0.406311D-01 -0.142848D+00 -0.247205D-01 -0.949941D-03 -0.215424D-02
     27 -0.121962D-01 -0.219932D-01 -0.882056D-01 -0.182423D-01 -0.280783D-01
     28  0.727217D-02 -0.161310D-01  0.656785D-02  0.679388D-03  0.971289D-03
     29  0.105662D-01 -0.232555D-01  0.873319D-02  0.345929D-03  0.985631D-03
     30  0.449242D-02 -0.886868D-02  0.304589D-02  0.751988D-03  0.857997D-04
     31 -0.145340D-01  0.156087D-02  0.658353D-02  0.122266D-03  0.315288D-03
     32 -0.260637D-01  0.327067D-03  0.120208D-01  0.636046D-03  0.102704D-02
     33 -0.103105D-01  0.306373D-04  0.340675D-02 -0.317675D-04  0.622037D-03
     34 -0.242818D-02 -0.673146D-03 -0.180374D-01 -0.138476D-02 -0.328227D-02
     35 -0.232053D-02 -0.192860D-02 -0.285326D-01 -0.346658D-02 -0.417530D-02
     36 -0.107184D-02 -0.102495D-02 -0.843114D-02 -0.617927D-03 -0.161101D-02
               21            22            23            24            25
     21  0.327273D+00
     22 -0.871415D-03  0.118133D+00
     23  0.417994D-03 -0.106668D+00  0.232983D+00
     24 -0.967826D-02  0.401081D-01 -0.678521D-01  0.742752D-01
     25 -0.112566D-02  0.846552D-02  0.113805D-01  0.370858D-02  0.535170D+00
     26 -0.779942D-03 -0.169878D-01 -0.258274D-01 -0.902684D-02 -0.481813D-01
     27 -0.744803D-02  0.546766D-02  0.797369D-02  0.265090D-02 -0.173300D-01
     28  0.302211D-03 -0.143476D-02 -0.376977D-02 -0.807549D-03 -0.999205D-01
     29 -0.388791D-03 -0.363436D-02 -0.341832D-02 -0.189812D-02  0.969872D-01
     30  0.508610D-03 -0.128028D-02 -0.212206D-02  0.508981D-03 -0.375696D-01
     31 -0.517231D-03  0.897425D-03 -0.121622D-03  0.254698D-03 -0.267384D+00
     32 -0.113741D-03  0.672709D-03  0.116774D-02  0.725480D-03  0.131562D-01
     33  0.391857D-03  0.500137D-03  0.567381D-03  0.103351D-03  0.933782D-01
     34 -0.775111D-03  0.535610D-03  0.476474D-03  0.697180D-03 -0.487976D-01
     35 -0.128651D-02  0.843890D-03  0.986521D-03  0.615305D-04 -0.319208D-03
     36  0.129100D-02  0.156168D-03 -0.458691D-03  0.565406D-03 -0.196747D-01
               26            27            28            29            30
     26  0.492136D+00
     27 -0.245210D-01  0.552064D+00
     28  0.984343D-01 -0.379536D-01  0.105588D+00
     29 -0.226665D+00  0.711484D-01 -0.104554D+00  0.249579D+00
     30  0.717212D-01 -0.760774D-01  0.428279D-01 -0.768135D-01  0.780203D-01
     31  0.120211D-01  0.930812D-01 -0.125230D-01  0.513454D-03  0.544609D-02
     32 -0.476883D-01 -0.474062D-02  0.244032D-01 -0.518372D-03 -0.119746D-01
     33 -0.411552D-02 -0.863380D-01 -0.109306D-01 -0.279002D-03  0.410580D-02
     34 -0.421599D-03 -0.191366D-01 -0.168188D-02 -0.127030D-02 -0.150174D-01
     35 -0.475398D-01 -0.106505D-01  0.909390D-03  0.201148D-02  0.275308D-01
     36 -0.112771D-01 -0.302732D+00 -0.268166D-03 -0.210185D-03 -0.993288D-02
               31            32            33            34            35
     31  0.290900D+00
     32 -0.108923D-01  0.505782D-01
     33 -0.102052D+00  0.662392D-02  0.898024D-01
     34  0.351536D-02  0.109040D-02  0.304225D-01  0.495477D-01
     35  0.416565D-04 -0.113850D-02 -0.191720D-02  0.353905D-02  0.508328D-01
     36 -0.912395D-03 -0.411723D-04 -0.118041D-01  0.224133D-01  0.143619D-01
               36
     36  0.329770D+00
 FrcOut:
 IF    =   564 IFX   =   600 IFXYZ =   636
 IFFX  =   672 IFFFX =  1338 IFLen =    36
 IFFLen=   666 IFFFLn=     0 IEDerv=  1338
 LEDerv=  1781 IFroze=  3123 ICStrt= 32292
 DipoleDeriv   =-1.27973479D-01-1.63599030D-02-7.46808614D-02
                -2.25686694D-03-3.13559922D-01-7.65105443D-04
                -8.00474179D-02 1.53285165D-02 9.06758032D-02
                 4.65144804D-02 1.74684350D-03 4.55854824D-02
                 3.23689401D-04 1.39211916D-01-2.15372514D-04
                -1.32212481D-02-1.96641973D-03-1.16206503D-01
                -9.70768934D-02-7.26943810D-03 4.53061874D-02
                 3.30023450D-03 1.52318612D-01 1.47094800D-03
                 8.15361709D-02-6.11888685D-04 1.68670779D-02
                 2.58338341D-01-9.77954058D-03 2.54106505D-02
                -4.19899871D-02-2.42236659D-01-4.87506824D-03
                -7.25024327D-02-3.27156543D-02 1.31309424D-01
                 8.42983771D-03-2.20203190D-03 6.96287737D-04
                 1.37288786D-02 1.31783021D-01-6.85096723D-03
                 1.91032231D-02 3.10282632D-03-1.43728909D-01
                 2.51895008D-02-1.38637418D-02 2.00423027D-02
                -2.62560765D-02 1.84364626D-01-2.30989554D-02
                -7.68509114D-03-1.48724465D-02 9.90736781D-02
                 5.91678189D-03-2.76096914D-02-4.56850031D-02
                -2.61302832D-02 3.25308026D-02-1.45214205D-02
                 1.53143963D-02-3.61827829D-02-1.64022865D-01
                -7.46432201D-02 6.57359396D-02-2.86352765D-02
                 7.31980429D-02-1.18020947D-01 3.82808888D-02
                -2.93268005D-03 6.75586099D-02 5.18244303D-02
                 5.51399931D-02-3.44741724D-02-1.38007121D-02
                 1.59455369D-02 7.56843569D-02-7.36352900D-03
                 5.58467674D-02-9.05439067D-03 1.34421210D-01
                 1.90425675D-02 9.40666865D-02-4.06965284D-02
                 2.86056806D-02-1.15213977D-01 3.56604217D-02
                -3.80749846D-02 5.80142697D-02 3.52088460D-02
                -1.85098925D-01-3.44076254D-02 6.19651795D-02
                -2.20028320D-02 3.95583810D-02-2.43644618D-02
                 8.40902269D-02-9.37247212D-03 3.43358756D-02
                 6.62210147D-02-1.55833252D-02 4.49229077D-03
                -1.64660167D-02 3.35797898D-02 6.64262279D-03
                -4.14269303D-02-3.92281675D-02-1.69758069D-01
 Full mass-weighted force constant matrix:
 Low frequencies ---  -14.6966   -6.1139    0.0003    0.0003    0.0003   16.6381
 Low frequencies ---  111.6751  231.2463  318.5077
 Dipole derivatives wrt mode   1: -1.66542D-01  1.79732D-01  9.01630D-02
 Vibrational polarizability contributions from mode   1       0.0599815       0.0698586       0.0175803
 Vibrational hyperpolarizability contributions from mode   1       0.0000000       0.0000000       0.0000000
 Dipole derivatives wrt mode   2: -1.10940D-01  1.25732D-01  1.86771D-02
 Vibrational polarizability contributions from mode   2       0.0061945       0.0079564       0.0001756
 Vibrational hyperpolarizability contributions from mode   2       0.0000000       0.0000000       0.0000000
 Dipole derivatives wrt mode   3:  3.04802D-01  6.83248D-01  1.78088D-02
 Vibrational polarizability contributions from mode   3       0.0246452       0.1238373       0.0000841
 Vibrational hyperpolarizability contributions from mode   3       0.0000000       0.0000000       0.0000000
 Dipole derivatives wrt mode   4: -8.62526D-01  9.87027D-02 -3.16051D-02
 Vibrational polarizability contributions from mode   4       0.1068673       0.0013995       0.0001435
 Vibrational hyperpolarizability contributions from mode   4       0.0000000       0.0000000       0.0000000
 Dipole derivatives wrt mode   5:  3.13552D-02  3.22694D+00 -4.76853D-01
 Vibrational polarizability contributions from mode   5       0.0000617       0.6534954       0.0142702
 Vibrational hyperpolarizability contributions from mode   5       0.0000000       0.0000000       0.0000000
 Dipole derivatives wrt mode   6:  1.16705D+00  4.70753D-01  1.23967D+00
 Vibrational polarizability contributions from mode   6       0.0574849       0.0093533       0.0648620
 Vibrational hyperpolarizability contributions from mode   6       0.0000000       0.0000000       0.0000000
 Dipole derivatives wrt mode   7:  1.37407D+00  3.58222D-01 -2.69361D-01
 Vibrational polarizability contributions from mode   7       0.0691280       0.0046983       0.0026565
 Vibrational hyperpolarizability contributions from mode   7       0.0000000       0.0000000       0.0000000
 Dipole derivatives wrt mode   8:  1.15577D-02 -6.64865D+00 -1.41401D-02
 Vibrational polarizability contributions from mode   8       0.0000040       1.3343080       0.0000060
 Vibrational hyperpolarizability contributions from mode   8       0.0000000       0.0000000       0.0000000
 Dipole derivatives wrt mode   9:  1.51030D+00  1.68994D-01 -4.55432D-01
 Vibrational polarizability contributions from mode   9       0.0627158       0.0007852       0.0057029
 Vibrational hyperpolarizability contributions from mode   9       0.0000000       0.0000000       0.0000000
 Dipole derivatives wrt mode  10: -6.58078D-01  1.44203D+00 -5.88847D-01
 Vibrational polarizability contributions from mode  10       0.0111856       0.0537099       0.0089559
 Vibrational hyperpolarizability contributions from mode  10       0.0000000       0.0000000       0.0000000
 Dipole derivatives wrt mode  11:  9.06249D-01  3.22188D+00 -1.11533D-01
 Vibrational polarizability contributions from mode  11       0.0206009       0.2603809       0.0003120
 Vibrational hyperpolarizability contributions from mode  11       0.0000000       0.0000000       0.0000000
 Dipole derivatives wrt mode  12:  6.18585D-01 -1.84003D+00 -3.52959D-01
 Vibrational polarizability contributions from mode  12       0.0086070       0.0761551       0.0028022
 Vibrational hyperpolarizability contributions from mode  12       0.0000000       0.0000000       0.0000000
 Dipole derivatives wrt mode  13: -4.17550D-01 -1.52981D-01 -2.96109D-01
 Vibrational polarizability contributions from mode  13       0.0032693       0.0004388       0.0016441
 Vibrational hyperpolarizability contributions from mode  13       0.0000000       0.0000000       0.0000000
 Dipole derivatives wrt mode  14: -7.28099D-02  8.11478D-03 -2.27633D-01
 Vibrational polarizability contributions from mode  14       0.0000856       0.0000011       0.0008366
 Vibrational hyperpolarizability contributions from mode  14       0.0000000       0.0000000       0.0000000
 Dipole derivatives wrt mode  15: -8.23779D-01 -3.25204D-01 -6.31840D-01
 Vibrational polarizability contributions from mode  15       0.0104715       0.0016319       0.0061603
 Vibrational hyperpolarizability contributions from mode  15       0.0000000       0.0000000       0.0000000
 Dipole derivatives wrt mode  16:  1.35752D+00  4.25538D-01 -2.05835D-02
 Vibrational polarizability contributions from mode  16       0.0273806       0.0026904       0.0000063
 Vibrational hyperpolarizability contributions from mode  16       0.0000000       0.0000000       0.0000000
 Dipole derivatives wrt mode  17: -4.28867D-01 -1.27483D+00 -6.56905D-01
 Vibrational polarizability contributions from mode  17       0.0024881       0.0219854       0.0058376
 Vibrational hyperpolarizability contributions from mode  17       0.0000000       0.0000000       0.0000000
 Dipole derivatives wrt mode  18:  1.01523D+00 -4.29346D-01  1.01216D+00
 Vibrational polarizability contributions from mode  18       0.0131268       0.0023477       0.0130476
 Vibrational hyperpolarizability contributions from mode  18       0.0000000       0.0000000       0.0000000
 Dipole derivatives wrt mode  19:  8.96304D-01  1.05985D+00  1.42411D+00
 Vibrational polarizability contributions from mode  19       0.0098075       0.0137131       0.0247590
 Vibrational hyperpolarizability contributions from mode  19       0.0000000       0.0000000       0.0000000
 Dipole derivatives wrt mode  20: -9.27680D-01  1.40580D+00 -2.01219D+00
 Vibrational polarizability contributions from mode  20       0.0103000       0.0236531       0.0484597
 Vibrational hyperpolarizability contributions from mode  20       0.0000000       0.0000000       0.0000000
 Dipole derivatives wrt mode  21:  1.15872D+00 -9.25233D-01 -1.96993D+00
 Vibrational polarizability contributions from mode  21       0.0158831       0.0101269       0.0459066
 Vibrational hyperpolarizability contributions from mode  21       0.0000000       0.0000000       0.0000000
 Dipole derivatives wrt mode  22: -3.21020D+00  8.18134D-02 -9.09615D-01
 Vibrational polarizability contributions from mode  22       0.0950146       0.0000617       0.0076285
 Vibrational hyperpolarizability contributions from mode  22       0.0000000       0.0000000       0.0000000
 Dipole derivatives wrt mode  23:  2.56268D+00 -4.62859D+00 -1.08691D+00
 Vibrational polarizability contributions from mode  23       0.0195905       0.0639082       0.0035241
 Vibrational hyperpolarizability contributions from mode  23       0.0000000       0.0000000       0.0000000
 Dipole derivatives wrt mode  24: -3.75051D+00 -3.95984D+00 -1.77531D+00
 Vibrational polarizability contributions from mode  24       0.0413861       0.0461349       0.0092731
 Vibrational hyperpolarizability contributions from mode  24       0.0000000       0.0000000       0.0000000
 Dipole derivatives wrt mode  25: -8.12104D-01 -1.46208D-01 -2.95042D+00
 Vibrational polarizability contributions from mode  25       0.0019107       0.0000619       0.0252198
 Vibrational hyperpolarizability contributions from mode  25       0.0000000       0.0000000       0.0000000
 Dipole derivatives wrt mode  26: -2.42867D+00 -9.04610D-01  5.67279D+00
 Vibrational polarizability contributions from mode  26       0.0166526       0.0023103       0.0908527
 Vibrational hyperpolarizability contributions from mode  26       0.0000000       0.0000000       0.0000000
 Dipole derivatives wrt mode  27:  4.79717D+00 -3.71644D+00  1.13588D+00
 Vibrational polarizability contributions from mode  27       0.0646746       0.0388166       0.0036260
 Vibrational hyperpolarizability contributions from mode  27       0.0000000       0.0000000       0.0000000
 Dipole derivatives wrt mode  28: -5.67176D-01  5.10032D-01 -5.99430D+00
 Vibrational polarizability contributions from mode  28       0.0008947       0.0007235       0.0999353
 Vibrational hyperpolarizability contributions from mode  28       0.0000000       0.0000000       0.0000000
 Dipole derivatives wrt mode  29: -2.12195D+00 -3.26677D-01 -7.37157D-01
 Vibrational polarizability contributions from mode  29       0.0124079       0.0002941       0.0014974
 Vibrational hyperpolarizability contributions from mode  29       0.0000000       0.0000000       0.0000000
 Dipole derivatives wrt mode  30: -2.69386D+00 -8.80402D-02  3.79375D+00
 Vibrational polarizability contributions from mode  30       0.0189929       0.0000203       0.0376686
 Vibrational hyperpolarizability contributions from mode  30       0.0000000       0.0000000       0.0000000
 Diagonal vibrational polarizability:
        0.7918134       2.8248579       0.5434345
 Harmonic frequencies (cm**-1), IR intensities (KM/Mole), Raman scattering
 activities (A**4/AMU), depolarization ratios for plane and unpolarized
 incident light, reduced masses (AMU), force constants (mDyne/A),
 and normal coordinates:
                           1         2         3         4         5
                           A         A         A         A         A
       Frequencies ---   111.5532  231.2354  318.5069  432.8288  654.8413
    Reduced masses ---     2.2561    1.0872    1.7922    1.9836    1.4809
   Force constants ---     0.0165    0.0342    0.1071    0.2189    0.3741
    IR Intensities ---     0.0682    0.0285    0.5600    0.7547   10.6415
 Coord Atom Element:
   1     1     6          0.05870   0.02801   0.01013   0.17394  -0.04405
   2     1     6          0.18818   0.00947   0.03276   0.00552   0.02186
   3     1     6         -0.00678  -0.04386   0.05576  -0.03466  -0.01378
   1     2     1          0.09549   0.10748  -0.14767   0.52102  -0.04478
   2     2     1          0.50286  -0.03379  -0.33413  -0.11451  -0.41811
   3     2     1         -0.00695  -0.04402   0.05633  -0.03483  -0.01458
   1     3     1          0.04222  -0.00772   0.08205   0.02340  -0.05005
   2     3     1          0.18225   0.05320   0.36053   0.10394   0.68509
   3     3     1         -0.03954  -0.11520   0.19891  -0.33985  -0.02300
   1     4     6          0.03645  -0.01542   0.08662   0.03093  -0.04153
   2     4     6         -0.17211   0.00854   0.07455   0.02855  -0.17456
   3     4     6          0.02737   0.02807  -0.07736   0.17090   0.01102
   1     5     1          0.00607  -0.06773   0.17736   0.02847  -0.09369
   2     5     1         -0.46867   0.05320   0.46091   0.15569   0.27913
   3     5     1          0.02631   0.02486  -0.07284   0.16554   0.00834
   1     6     6          0.04889  -0.00663   0.07211  -0.10103   0.01015
   2     6     6         -0.10452  -0.02122  -0.10793   0.00894   0.00712
   3     6     6          0.05996   0.04880  -0.08224  -0.06498   0.01609
   1     7     1          0.08157  -0.02545   0.14470  -0.39224  -0.07576
   2     7     1         -0.22905  -0.05292  -0.12558   0.23027   0.22574
   3     7     1          0.06415   0.05129  -0.08450  -0.05760   0.00890
   1     8     1          0.15234   0.00579   0.06847  -0.02865   0.19463
   2     8     1          0.00184  -0.00801  -0.07821  -0.06240   0.02778
   3     8     1          0.17783   0.06405   0.00120  -0.38284  -0.23413
   1     9     6         -0.13018  -0.00619  -0.14029  -0.09167   0.05659
   2     9     6          0.06265   0.00079  -0.02492  -0.05500   0.06526
   3     9     6         -0.07196  -0.02018   0.06413  -0.01904   0.01533
   1    10     1         -0.23933  -0.30908  -0.32058  -0.02760   0.13175
   2    10     1         -0.05706   0.01135  -0.08355  -0.04334   0.07854
   3    10     1         -0.23672   0.42063   0.15606  -0.07788  -0.05167
   1    11     1         -0.10160  -0.19700  -0.10063  -0.03884   0.03093
   2    11     1          0.13530   0.25490   0.24895  -0.07998  -0.06477
   3    11     1         -0.01071  -0.50642   0.13724   0.11271  -0.03864
   1    12     1         -0.20183   0.49650  -0.24377  -0.23043   0.13127
   2    12     1          0.23971  -0.24908  -0.14475  -0.04694   0.14301
   3    12     1         -0.07673  -0.04793   0.08041  -0.00708   0.00358
                           6         7         8         9        10
                           A         A         A         A         A
       Frequencies ---   798.5057  857.3299  944.2172  989.3283 1020.7386
    Reduced masses ---     1.1790    1.9555    1.3417    1.2161    2.0501
   Force constants ---     0.4429    0.8468    0.7048    0.7013    1.2585
    IR Intensities ---     3.1204    2.0889   44.2049    2.5170    2.8593
 Coord Atom Element:
   1     1     6          0.02152   0.10649  -0.00112  -0.06391  -0.05509
   2     1     6          0.00150   0.00123   0.16690  -0.00057   0.00798
   3     1     6          0.01532  -0.01965  -0.00013   0.06612  -0.01778
   1     2     1          0.11803  -0.28269  -0.00038   0.42922  -0.10311
   2     2     1         -0.04610  -0.04033  -0.72276  -0.02987   0.23935
   3     2     1          0.01573  -0.01418  -0.00038   0.06000  -0.02018
   1     3     1         -0.01438   0.30589  -0.00249  -0.28298  -0.07087
   2     3     1          0.14956   0.08246  -0.66574   0.03515  -0.19596
   3     3     1         -0.06065   0.37215  -0.00248  -0.37844  -0.03552
   1     4     6          0.00966   0.10650  -0.00027  -0.00207  -0.04307
   2     4     6         -0.05298  -0.01971  -0.04992   0.00031  -0.02573
   3     4     6          0.00963  -0.10387   0.00038  -0.02243   0.05503
   1     5     1          0.10485   0.03474  -0.00208   0.36188  -0.26535
   2     5     1          0.03222   0.02666  -0.02552  -0.02528   0.40402
   3     5     1          0.01257  -0.10959   0.00027  -0.00357   0.04952
   1     6     6         -0.05975  -0.10005  -0.00085   0.03579   0.19301
   2     6     6          0.05626   0.09774  -0.00150   0.03977   0.11650
   3     6     6         -0.05855   0.10854  -0.00040  -0.03338   0.05827
   1     7     1          0.08694   0.00997   0.00183   0.42466   0.06532
   2     7     1         -0.45329   0.22138  -0.00178   0.12678   0.18261
   3     7     1         -0.03815   0.09525  -0.00059  -0.06148   0.06073
   1     8     1          0.06881  -0.06169   0.03344  -0.04043   0.50518
   2     8     1          0.29787   0.09651   0.01804   0.03865   0.23146
   3     8     1          0.41793   0.05034  -0.00047   0.09427  -0.13917
   1     9     6         -0.02277  -0.12010  -0.00253  -0.04696  -0.08699
   2     9     6          0.02222  -0.07660   0.00377  -0.04338  -0.12592
   3     9     6         -0.02644   0.01800   0.00003   0.04377  -0.09066
   1    10     1          0.29496   0.11499   0.02222  -0.01271  -0.01494
   2    10     1          0.28864  -0.01507   0.01828  -0.10194  -0.04272
   3    10     1          0.25266  -0.13699   0.00691  -0.16033   0.04493
   1    11     1          0.02504  -0.25447  -0.00389  -0.15041  -0.03105
   2    11     1         -0.19300  -0.52372  -0.02835  -0.21116  -0.14747
   3    11     1          0.10863  -0.26689  -0.00194  -0.19730   0.04917
   1    12     1         -0.07287   0.21850   0.00818   0.18941  -0.17878
   2    12     1         -0.39736   0.12053  -0.01212   0.21381  -0.34776
   3    12     1          0.00620  -0.02599   0.00004   0.00299  -0.06734
                          11        12        13        14        15
                           A         A         A         A         A
       Frequencies ---  1035.7876 1093.8074 1197.9774 1291.0135 1320.6055
    Reduced masses ---     1.2028    1.6875    1.9289    1.1722    1.2509
   Force constants ---     0.7603    1.1895    1.6310    1.1511    1.2854
    IR Intensities ---    11.2142    3.8929    0.2854    0.0572    1.1836
 Coord Atom Element:
   1     1     6          0.00730  -0.02122   0.06018   0.03152  -0.02455
   2     1     6          0.01573  -0.01433   0.00019   0.00146  -0.00097
   3     1     6          0.00604  -0.00618  -0.06717  -0.00911  -0.10186
   1     2     1          0.04086  -0.03163  -0.32778  -0.01140  -0.37489
   2     2     1          0.43513   0.03160  -0.00390  -0.00109   0.01183
   3     2     1          0.00612  -0.00817  -0.05737  -0.00195  -0.10383
   1     3     1          0.00002  -0.03583   0.21399   0.09354   0.01374
   2     3     1         -0.37640  -0.07749   0.00203   0.01008  -0.01607
   3     3     1         -0.01197  -0.03014   0.25488   0.11403  -0.00298
   1     4     6          0.01116  -0.00736  -0.08614  -0.04261  -0.01238
   2     4     6         -0.08133   0.10549   0.00215  -0.02084   0.01047
   3     4     6         -0.01624   0.01571   0.15756   0.04041   0.07848
   1     5     1          0.08780  -0.08224  -0.32364  -0.03657   0.83426
   2     5     1          0.76193  -0.21369  -0.00415   0.04156  -0.00805
   3     5     1         -0.01567   0.01317   0.14418   0.04232   0.12036
   1     6     6         -0.05047   0.05280   0.02199   0.02712  -0.04563
   2     6     6         -0.05567  -0.16521   0.02211  -0.02453  -0.02593
   3     6     6         -0.01970  -0.01759  -0.18071   0.01403   0.03360
   1     7     1         -0.03226  -0.10128   0.41274   0.55152   0.11533
   2     7     1         -0.07779   0.05238  -0.19819   0.35966   0.14296
   3     7     1         -0.02062  -0.02171  -0.19075  -0.03576   0.02049
   1     8     1         -0.04915   0.43225   0.05862  -0.50097   0.22291
   2     8     1         -0.06158  -0.01628   0.16684  -0.34754   0.11534
   3     8     1         -0.03226  -0.24947   0.17084  -0.01249  -0.00977
   1     9     6          0.01338  -0.08471  -0.00335  -0.03651   0.01483
   2     9     6          0.05133   0.10480  -0.03363   0.04560  -0.01130
   3     9     6          0.03936   0.03399   0.09293  -0.07105  -0.02200
   1    10     1          0.07343   0.41033  -0.02752   0.13003  -0.02544
   2    10     1          0.06017   0.35765  -0.15313   0.20764   0.00270
   3    10     1         -0.02198   0.04772  -0.20577   0.13182   0.06464
   1    11     1         -0.02168  -0.14079  -0.11478   0.04121   0.05345
   2    11     1         -0.03962  -0.46327  -0.02383  -0.06727   0.07130
   3    11     1         -0.04145  -0.07310  -0.19326   0.12118   0.06387
   1    12     1          0.12285   0.26947   0.19551  -0.02348  -0.03283
   2    12     1          0.13102  -0.03690   0.32354  -0.22318   0.01015
   3    12     1          0.02516   0.01295   0.04616  -0.05298  -0.01249
                          16        17        18        19        20
                           A         A         A         A         A
       Frequencies ---  1345.8374 1410.4303 1453.6213 1484.7123 1499.4993
    Reduced masses ---     1.3903    1.2219    1.1799    1.0743    1.0399
   Force constants ---     1.4836    1.4321    1.4689    1.3953    1.3776
    IR Intensities ---     2.0244    2.2406    2.2395    3.9547    6.8858
 Coord Atom Element:
   1     1     6         -0.02606  -0.00008  -0.02715  -0.00737  -0.00278
   2     1     6          0.00259  -0.00103   0.00020   0.00005   0.00042
   3     1     6         -0.04077  -0.00504  -0.03760  -0.00774  -0.00362
   1     2     1         -0.28412  -0.06881   0.58102   0.11323   0.01242
   2     2     1         -0.03131   0.00964  -0.00625   0.01205   0.00178
   3     2     1         -0.05079  -0.00652  -0.02058  -0.00657  -0.00317
   1     3     1         -0.09204  -0.02169   0.31102   0.05810   0.00802
   2     3     1          0.04035  -0.00712   0.00303  -0.00821  -0.00305
   3     3     1         -0.14665  -0.04250   0.60012   0.11527   0.01756
   1     4     6          0.02116   0.00896  -0.10298  -0.01789  -0.00284
   2     4     6         -0.02323   0.00139   0.00211  -0.00732  -0.00064
   3     4     6          0.04613   0.01273  -0.01659  -0.00352   0.00055
   1     5     1          0.24031  -0.00181   0.28339   0.03608   0.03355
   2     5     1         -0.00051   0.00766  -0.01160   0.02380   0.00352
   3     5     1          0.06368   0.01557   0.00082  -0.00050   0.00442
   1     6     6          0.14210  -0.01066   0.03921   0.03375   0.01083
   2     6     6          0.06955  -0.01156   0.02556  -0.04675  -0.01215
   3     6     6         -0.01774  -0.00451   0.01423  -0.04229   0.01236
   1     7     1         -0.48817   0.05200  -0.07427  -0.34618  -0.00635
   2     7     1         -0.33209   0.04680  -0.22151   0.52636   0.06900
   3     7     1          0.03881  -0.01181   0.02196  -0.02900   0.01286
   1     8     1         -0.51636   0.00603   0.03019  -0.03877  -0.02817
   2     8     1         -0.31616   0.00464  -0.05827   0.16612  -0.03259
   3     8     1          0.01033   0.01675  -0.18622   0.60070   0.02441
   1     9     6         -0.05221   0.07591  -0.00169  -0.01677   0.01905
   2     9     6          0.01754   0.11015   0.00981   0.00558  -0.02550
   3     9     6          0.03085   0.03224   0.01109   0.01109   0.03813
   1    10     1          0.08407  -0.43928  -0.03264   0.05821   0.43312
   2    10     1          0.03295  -0.27298  -0.04005  -0.06519   0.15933
   3    10     1         -0.10013  -0.22024  -0.06811  -0.25825  -0.10043
   1    11     1         -0.08970  -0.08652  -0.01615   0.03047  -0.22800
   2    11     1         -0.15105  -0.50018  -0.05276   0.12590   0.31177
   3    11     1         -0.04897  -0.25570  -0.01641   0.08245  -0.58668
   1    12     1          0.13410  -0.32270   0.02015   0.18735  -0.51345
   2    12     1         -0.03335  -0.46652  -0.06123  -0.20411  -0.05888
   3    12     1          0.01397   0.08269   0.01220   0.00143   0.06645
                          21        22        23        24        25
                           A         A         A         A         A
       Frequencies ---  1508.2722 1708.4574 3003.5675 3024.3297 3047.7478
    Reduced masses ---     1.0711    4.6433    1.0650    1.0348    1.0957
   Force constants ---     1.4356    7.9852    5.6608    5.5764    5.9966
    IR Intensities ---     6.0793   11.1395   29.1726   32.8984    9.3858
 Coord Atom Element:
   1     1     6          0.00849   0.32827   0.00037  -0.00038   0.00065
   2     1     6          0.00007  -0.00041  -0.00008   0.00002   0.00002
   3     1     6          0.00835   0.18635   0.00040  -0.00009   0.00126
   1     2     1         -0.07331  -0.43819   0.00124   0.00036   0.00375
   2     2     1         -0.00557   0.00147  -0.00027  -0.00030   0.00032
   3     2     1          0.00769   0.23059  -0.01215   0.00186  -0.01667
   1     3     1         -0.03755   0.06359  -0.00610  -0.00054  -0.01051
   2     3     1          0.00493  -0.00605  -0.00055   0.00034  -0.00023
   3     3     1         -0.08096  -0.43557   0.00494  -0.00026   0.00821
   1     4     6          0.01174  -0.39622   0.00028   0.00060  -0.00134
   2     4     6          0.00279   0.00226  -0.00040  -0.00003   0.00031
   3     4     6         -0.00475  -0.16295  -0.00111   0.00132   0.00940
   1     5     1         -0.01140   0.38372   0.00158  -0.00088   0.00431
   2     5     1         -0.01162  -0.00277   0.00102  -0.00027  -0.00058
   3     5     1         -0.00771  -0.17410   0.01563  -0.01725  -0.12306
   1     6     6         -0.04342   0.06712   0.03463   0.00110  -0.01710
   2     6     6          0.01904   0.00097  -0.06228  -0.00032   0.01927
   3     6     6          0.03212   0.00996  -0.00716   0.00254  -0.08102
   1     7     1          0.19262  -0.17992   0.03143  -0.00221   0.05332
   2     7     1         -0.17827  -0.02186   0.00072  -0.00265   0.03820
   3     7     1          0.02291   0.02069   0.37074  -0.02489   0.88390
   1     8     1          0.06621   0.12093  -0.44923  -0.00844   0.16289
   2     8     1         -0.02641   0.02745   0.75014   0.01169  -0.27423
   3     8     1         -0.25260  -0.03570  -0.28724  -0.00451   0.08691
   1     9     6         -0.03315   0.00930  -0.00678  -0.02614   0.00066
   2     9     6          0.01599   0.00144   0.00503  -0.03702  -0.01100
   3     9     6          0.02853   0.00055  -0.00013  -0.01970   0.02354
   1    10     1          0.18691  -0.02768   0.03173  -0.24352  -0.08613
   2    10     1         -0.11108  -0.01678  -0.06119   0.44295   0.15435
   3    10     1         -0.57764   0.00339   0.02518  -0.17984  -0.05574
   1    11     1          0.03322  -0.00103   0.05287   0.50541   0.09025
   2    11     1          0.35193  -0.02699  -0.00420  -0.03175  -0.00997
   3    11     1          0.10804  -0.02053  -0.02552  -0.21905  -0.03206
   1    12     1          0.31421  -0.02233  -0.00289   0.04529  -0.01379
   2    12     1         -0.47501  -0.00517   0.00161   0.02486  -0.01040
   3    12     1          0.01527   0.00750   0.00372   0.63359  -0.19389
                          26        27        28        29        30
                           A         A         A         A         A
       Frequencies ---  3087.4084 3094.4597 3110.6093 3125.0143 3206.6032
    Reduced masses ---     1.1012    1.1027    1.0820    1.0678    1.1149
   Force constants ---     6.1845    6.2211    6.1683    6.1440    6.7544
    IR Intensities ---    38.8973   38.1150   36.5134    5.1528   21.6571
 Coord Atom Element:
   1     1     6         -0.00126  -0.00079  -0.01774  -0.04806  -0.05996
   2     1     6         -0.00005   0.00009   0.00001   0.00005   0.00000
   3     1     6         -0.00046   0.00015  -0.00283  -0.04803   0.07742
   1     2     1         -0.00184  -0.00066  -0.00471  -0.00908  -0.00896
   2     2     1          0.00022  -0.00008  -0.00005  -0.00006   0.00004
   3     2     1          0.01630   0.00343   0.16962   0.78125  -0.59245
   1     3     1          0.02049   0.01024   0.24147   0.48468   0.70810
   2     3     1         -0.00008  -0.00049  -0.00004  -0.00007  -0.00004
   3     3     1         -0.01159  -0.00572  -0.12735  -0.25891  -0.35091
   1     4     6          0.00050   0.00005   0.00199   0.00708   0.00022
   2     4     6         -0.00001   0.00004   0.00002  -0.00005   0.00001
   3     4     6         -0.01082  -0.00671  -0.07807   0.02797   0.01236
   1     5     1         -0.00304  -0.00320  -0.04349   0.01052   0.00470
   2     5     1          0.00076  -0.00024   0.00146  -0.00060  -0.00015
   3     5     1          0.12618   0.08096   0.92251  -0.28476  -0.11964
   1     6     6          0.00349   0.00595  -0.00441   0.00178   0.00082
   2     6     6         -0.00368  -0.00898   0.00401  -0.00144  -0.00032
[...]
     14 -0.401842D-02 -0.297810D-03  0.209295D-02 -0.136965D-03  0.525191D-03
     15 -0.102264D-01  0.484793D-02  0.565445D-02  0.835764D-03  0.161211D-02
     16 -0.987070D-03 -0.841446D-02 -0.187097D-01 -0.409039D-03  0.290977D-03
     17 -0.874467D-02 -0.444634D-04 -0.200449D-01 -0.220730D-02  0.621158D-03
     18 -0.717386D-02 -0.755468D-02 -0.290323D-04 -0.479477D-02  0.755983D-02
     19 -0.711840D-03  0.490533D-02  0.331924D-01 -0.540657D-02 -0.861105D-02
     20 -0.114194D-03 -0.656854D-03  0.313691D-01 -0.834783D-02 -0.547586D-02
     21  0.429913D-02 -0.701884D-03  0.322345D-01 -0.863441D-02 -0.866888D-02
     22 -0.136511D-03  0.138257D-02 -0.147055D-02  0.141995D-03 -0.139239D-03
     23  0.888960D-04 -0.920110D-03  0.160592D-02 -0.250973D-03  0.352177D-03
     24 -0.311343D-03  0.363380D-02 -0.527866D-02  0.506878D-03 -0.118902D-02
     25 -0.450890D-02 -0.147468D-01  0.261838D-01 -0.806008D-03 -0.840769D-04
     26  0.148936D-01  0.420282D-02 -0.295514D-01 -0.409242D-02  0.317175D-03
     27 -0.106710D-01  0.126554D-01  0.109974D-02  0.564082D-02 -0.920383D-03
     28  0.493753D-03  0.103357D-04 -0.628950D-03  0.631715D-03 -0.147597D-01
     29 -0.379601D-03  0.462330D-03  0.282539D-03  0.143907D-01 -0.138941D-03
     30  0.463678D-04 -0.477490D-03  0.257633D-03 -0.148343D-01  0.147119D-01
               11            12            13            14            15
     11  0.332286D+00
     12  0.360979D-03  0.221020D+00
     13  0.434685D-03  0.122838D+00  0.247121D+00
     14 -0.160804D-02 -0.167746D-01 -0.194582D-01  0.250220D+00
     15 -0.685377D-03  0.264961D-02  0.174179D-01  0.121682D+00  0.310204D+00
     16 -0.218254D-02  0.190204D-03  0.670155D-03 -0.218566D-01 -0.296230D-01
     17 -0.464772D-03 -0.567441D-03  0.230281D-02  0.533586D-02  0.226691D-01
     18 -0.488939D-02 -0.194852D-03  0.262785D-02  0.678802D-02  0.221406D-01
     19 -0.882527D-02 -0.379444D-03 -0.210798D-03 -0.457759D-03 -0.122675D-02
     20 -0.869295D-02 -0.593207D-04  0.132215D-02 -0.433718D-04  0.594367D-02
     21 -0.516938D-02  0.789163D-03  0.583519D-03 -0.148295D-02  0.570456D-03
     22 -0.308362D-03  0.665829D-03  0.548322D-03 -0.349749D-03 -0.773441D-04
     23 -0.199405D-03  0.507556D-03  0.484011D-03 -0.190337D-03 -0.557746D-03
     24 -0.308027D-03  0.700397D-03  0.453259D-03 -0.886416D-05  0.107623D-02
     25  0.419866D-02 -0.742244D-04 -0.705386D-04  0.740450D-03  0.136810D-02
     26  0.806269D-03  0.738247D-03  0.319758D-03 -0.423923D-04  0.421437D-02
     27 -0.515635D-02 -0.409178D-03 -0.242644D-03  0.541426D-03 -0.266795D-02
     28  0.153129D-01 -0.198131D-03 -0.355624D-03  0.127508D-03 -0.721102D-04
     29 -0.149778D-01  0.172173D-03  0.115603D-03 -0.129543D-02 -0.103882D-02
     30 -0.355033D-03 -0.327870D-03 -0.317892D-03 -0.870977D-04 -0.688009D-03
               16            17            18            19            20
     16  0.236162D+00
     17  0.266791D-01  0.228901D+00
     18  0.465276D-01  0.493244D-01  0.288607D+00
     19  0.431117D-02 -0.159060D-01 -0.161983D-01  0.220823D+00
     20  0.255478D-02  0.336615D-02  0.323524D-01  0.293063D-01  0.217577D+00
     21 -0.153937D-01  0.396061D-02 -0.168102D-01  0.299626D-01  0.301181D-01
     22  0.433695D-04  0.408360D-02 -0.376240D-02 -0.235915D-03 -0.144059D-02
     23  0.429764D-03 -0.212957D-02  0.161872D-02 -0.292332D-03 -0.157520D-03
     24 -0.259064D-04  0.149703D-01 -0.144945D-01  0.391103D-03 -0.431559D-02
     25 -0.853424D-02  0.514420D-01 -0.600707D-01 -0.500291D-02 -0.492290D-02
     26 -0.513176D-01  0.912661D-02  0.594490D-01 -0.203156D-01  0.622362D-02
     27  0.592752D-01 -0.605757D-01  0.255097D-02  0.270409D-01 -0.277368D-03
     28 -0.113493D-02  0.338346D-02  0.178032D-02 -0.893034D-03  0.542505D-01
     29 -0.121849D-02  0.140133D-02  0.761914D-03 -0.542398D-01 -0.959101D-03
     30 -0.292620D-02  0.128022D-02 -0.305619D-02  0.546736D-01 -0.548275D-01
               21            22            23            24            25
     21  0.220576D+00
     22 -0.232501D-03  0.792077D-01
     23 -0.211543D-04  0.393846D-01  0.847386D-01
     24  0.215593D-03  0.302113D-01 -0.223378D-01  0.915394D-01
     25  0.198875D-01 -0.913988D-03 -0.586841D-02  0.419788D-02  0.191645D+00
     26  0.479764D-02  0.220525D-02  0.129184D-03  0.398433D-02 -0.871564D-01
     27 -0.253808D-01  0.282348D-02 -0.813013D-03  0.592281D-02 -0.977199D-01
     28 -0.547230D-01 -0.297414D-03 -0.280253D-03 -0.240463D-03 -0.148411D-02
     29  0.548733D-01 -0.277431D-03 -0.148351D-03 -0.263174D-03 -0.400065D-03
     30  0.323093D-03 -0.350363D-03  0.473376D-03 -0.104498D-02 -0.166352D-02
               26            27            28            29            30
     26  0.193871D+00
     27 -0.103558D+00  0.206523D+00
     28 -0.147060D-02  0.364003D-02  0.174284D+00
     29 -0.362966D-03 -0.158237D-03 -0.822470D-01  0.171689D+00
     30 -0.136935D-02  0.200021D-02 -0.830929D-01 -0.825442D-01  0.172003D+00
 Final forces over variables, Energy=-1.57268090D+02:
  1.21472278D-05 1.64409824D-05 4.80936136D-05 2.01569170D-06
  2.15199713D-05 1.56534818D-05 1.00357676D-05 8.86783813D-06
 -9.40827756D-06 8.47656916D-06-6.36151125D-06-4.74173214D-05
 -5.53366118D-05 2.64607177D-05 1.11413915D-04 6.41606332D-05
  2.15153532D-05-4.60134692D-05-6.86259849D-06-2.32781680D-05
 -5.66763985D-05-5.10044018D-05 1.71711484D-05-8.26436336D-05
  1.85484705D-05 4.44761668D-06-1.03659596D-04-1.23539402D-06
 -3.05360572D-05-2.13585263D-07

 GradGradGradGradGradGradGradGradGradGradGradGradGradGradGradGradGradGrad
 Berny optimization.
 Search for a local minimum.
 Step number   1 out of a maximum of   2
 All quantities printed in internal units (Hartrees-Bohrs-Radians)
 Second derivative matrix not updated -- analytic derivatives used.
     Eigenvalues ---    0.00412   0.00707   0.02212   0.10301   0.10762
     Eigenvalues ---    0.11451   0.11530   0.12021   0.13443   0.14101
     Eigenvalues ---    0.14729   0.21680   0.24745   0.29432   0.29754
     Eigenvalues ---    0.31155   0.31750   0.32327   0.33935   0.34134
     Eigenvalues ---    0.34472   0.34664   0.34781   0.35161   0.35503
     Eigenvalues ---    0.38365   0.38677   0.41033   0.42666   0.63977
 Angle between quadratic step and forces=  72.72 degrees.
 Linear search not attempted -- first point.
 Variable       Old X    -DE/DX   Delta X   Delta X   Delta X     New X
                                 (Linear)    (Quad)   (Total)
    B1        2.05269   0.00001   0.00000   0.00002   0.00002   2.05271
    B2        2.04900   0.00002   0.00000   0.00005   0.00005   2.04905
    B3        2.51266   0.00005   0.00000   0.00005   0.00005   2.51271
    B4        2.05958   0.00000   0.00000   0.00003   0.00003   2.05961
    B5        2.84038   0.00002   0.00000   0.00000   0.00000   2.84039
    B6        2.06881   0.00002   0.00000   0.00004   0.00004   2.06885
    B7        2.07436   0.00001   0.00000   0.00008   0.00008   2.07444
    B8        2.90532   0.00001   0.00000   0.00004   0.00004   2.90537
    B9        2.06570  -0.00001   0.00000  -0.00002  -0.00002   2.06568
   B10        2.06606   0.00001   0.00000   0.00001   0.00001   2.06607
   B11        2.06773  -0.00001   0.00000  -0.00004  -0.00004   2.06769
    A1        2.03693  -0.00005   0.00000  -0.00010  -0.00010   2.03683
    A2        2.12505  -0.00006   0.00000  -0.00022  -0.00022   2.12482
    A3        2.07499   0.00003   0.00000  -0.00011  -0.00011   2.07488
    A4        2.18911   0.00011   0.00000   0.00051   0.00051   2.18962
    A5        1.91131   0.00006   0.00000   0.00044   0.00044   1.91175
    A6        1.90309   0.00002   0.00000  -0.00002  -0.00002   1.90307
    A7        1.96932  -0.00005   0.00000  -0.00024  -0.00024   1.96908
    A8        1.93566  -0.00001   0.00000   0.00009   0.00009   1.93575
    A9        1.93790  -0.00002   0.00000  -0.00006  -0.00006   1.93784
   A10        1.94054  -0.00006   0.00000  -0.00032  -0.00032   1.94022
    D1        3.13861  -0.00005   0.00000  -0.00035  -0.00035   3.13825
    D2        0.00613   0.00002   0.00000  -0.00004  -0.00004   0.00609
    D3        3.13473  -0.00008   0.00000  -0.00003  -0.00003   3.13470
    D4        0.06046   0.00002   0.00000  -0.00524  -0.00524   0.05522
    D5        2.09012   0.00000   0.00000  -0.00521  -0.00521   2.08491
    D6       -2.08259  -0.00010   0.00000  -0.00573  -0.00573  -2.08831
    D7        1.07407   0.00000   0.00000  -0.00148  -0.00148   1.07260
    D8       -3.11000  -0.00003   0.00000  -0.00151  -0.00151  -3.11150
    D9       -1.01696   0.00000   0.00000  -0.00151  -0.00151  -1.01846
         Item               Value     Threshold  Converged?
 Maximum Force            0.000111     0.000450     YES
 RMS     Force            0.000043     0.000300     YES
 Maximum Displacement     0.005728     0.001800     NO 
 RMS     Displacement     0.001780     0.001200     NO 
 Predicted change in Energy=-3.379308D-07
 GradGradGradGradGradGradGradGradGradGradGradGradGradGradGradGradGradGrad


 Test job not archived.
 1\1\GINC-NODE28\Freq\RB3LYP\CBSB7\C4H8\MRHARPER\20-Nov-2009\1\\# freq 
 b3lyp/cbsb7 nosymm iop(7/33=1)\\1-butene freq\\0,1\C\H,1,B1\H,1,B2,2,A
 1\C,1,B3,3,A2,2,D1,0\H,4,B4,1,A3,3,D2,0\C,4,B5,1,A4,3,D3,0\H,6,B6,4,A5
 ,1,D4,0\H,6,B7,4,A6,1,D5,0\C,6,B8,4,A7,1,D6,0\H,9,B9,6,A8,4,D7,0\H,9,B
 10,6,A9,4,D8,0\H,9,B11,6,A10,4,D9,0\\B1=1.08623646\B2=1.08428432\B3=1.
 32964118\B4=1.08988291\B5=1.50306534\B6=1.094768\B7=1.09770325\B8=1.53
 742952\B9=1.09311899\B10=1.09331359\B11=1.09419353\A1=116.70733124\A2=
 121.75617244\A3=118.88812927\A4=125.42674085\A5=109.50980524\A6=109.03
 902812\A7=112.83395468\A8=110.90536341\A9=111.03370804\A10=111.1848409
 2\D1=179.8288363\D2=0.35132879\D3=179.60660463\D4=3.46421857\D5=119.75
 51188\D6=-119.32340423\D7=61.53993439\D8=-178.18971796\D9=-58.26731895
 \\Version=AM64L-G03RevD.01\HF=-157.2680904\RMSD=3.079e-09\RMSF=1.755e-
 05\ZeroPoint=0.1080053\Thermal=0.1132685\Dipole=-0.1378996,0.0007057,-
 0.0213453\DipoleDeriv=-0.1279735,-0.0163599,-0.0746809,-0.0022569,-0.3
 135599,-0.0007651,-0.0800474,0.0153285,0.0906758,0.0465145,0.0017468,0
 .0455855,0.0003237,0.1392119,-0.0002154,-0.0132212,-0.0019664,-0.11620
 65,-0.0970769,-0.0072694,0.0453062,0.0033002,0.1523186,0.0014709,0.081
 5362,-0.0006119,0.0168671,0.2583383,-0.0097795,0.0254107,-0.04199,-0.2
 422367,-0.0048751,-0.0725024,-0.0327157,0.1313094,0.0084298,-0.002202,
 0.0006963,0.0137289,0.131783,-0.006851,0.0191032,0.0031028,-0.1437289,
 0.0251895,-0.0138637,0.0200423,-0.0262561,0.1843646,-0.023099,-0.00768
 51,-0.0148724,0.0990737,0.0059168,-0.0276097,-0.045685,-0.0261303,0.03
 25308,-0.0145214,0.0153144,-0.0361828,-0.1640229,-0.0746432,0.0657359,
 -0.0286353,0.073198,-0.1180209,0.0382809,-0.0029327,0.0675586,0.051824
 4,0.05514,-0.0344742,-0.0138007,0.0159455,0.0756844,-0.0073635,0.05584
 68,-0.0090544,0.1344212,0.0190426,0.0940667,-0.0406965,0.0286057,-0.11
 5214,0.0356604,-0.038075,0.0580143,0.0352088,-0.1850989,-0.0344076,0.0
 619652,-0.0220028,0.0395584,-0.0243645,0.0840902,-0.0093725,0.0343359,
 0.066221,-0.0155833,0.0044923,-0.016466,0.0335798,0.0066426,-0.0414269
 ,-0.0392282,-0.1697581\Polar=60.2642602,3.0847798,35.7364967,5.0958393
 ,0.7363093,44.5177214\PG=C01 [X(C4H8)]\NImag=0\\0.79283199,-0.00068672
 ,0.10533031,0.09256733,-0.00056941,0.68512411,-0.05670658,-0.00000383,
 0.00662005,0.05288099,-0.00013166,-0.03495384,-0.00001528,-0.00005907,
 0.02346128,0.00240022,0.00012117,-0.32838706,-0.00005819,-0.00002231,0
 .35138014,-0.27470566,0.00009268,0.11266721,0.00253604,-0.00000177,-0.
 00219806,0.29399692,-0.00006506,-0.03365424,-0.00005899,0.00002576,0.0
 0189861,-0.00002161,-0.00005437,0.02336255,0.11771458,0.00002260,-0.11
 663719,0.02484849,0.00002098,-0.00908027,-0.12198787,-0.00002888,0.114
 72033,-0.43013812,0.00033046,-0.19903540,0.00328959,0.00000950,0.00179
 554,-0.02106072,0.00039095,-0.01826113,0.73370995,0.00027286,-0.049993
 06,0.00054723,0.00004127,0.00598098,-0.00010281,-0.00007266,0.00304419
 ,-0.00002708,0.00195083,0.15496285,-0.20097296,0.00045912,-0.23641547,
 -0.02811274,-0.00007241,-0.01629708,0.01536177,0.00007143,0.01012397,0
 .14143501,0.00131207,0.67869810,0.00288159,0.00001615,-0.03012759,-0.0
 0370814,0.00000973,-0.00282119,0.00102201,-0.00002077,0.00014437,-0.05
 678833,-0.00008196,0.01578373,0.05955601,0.00013002,0.00642316,0.00026
 844,0.00008484,0.01178559,-0.00002823,-0.00003000,-0.00784951,-0.00002
 215,-0.00001491,-0.04112334,-0.00031404,-0.00022439,0.02606268,0.00241
 447,-0.00001205,-0.01600389,-0.00265854,-0.00004282,-0.00001192,-0.000
 34141,0.00001237,0.00133669,0.01152605,0.00002237,-0.31736269,-0.01269
 440,0.00055451,0.34148464,-0.03209017,0.00067416,0.00908904,0.00178035
 ,0.00015611,0.00192176,-0.00051441,-0.00066814,-0.00149689,-0.18488914
 ,0.00317748,0.04716223,-0.00021153,-0.00016959,-0.00115636,0.47663680,
 0.00001987,0.00700943,0.00021245,-0.00003950,-0.00841959,0.00004257,0.
 00007765,0.01384190,0.00000106,0.00254518,-0.07283569,-0.00045474,-0.0
 0049641,0.00228635,-0.00042227,-0.04492715,0.48362395,-0.01501534,0.00
 013604,0.01120077,-0.00198191,0.00008652,0.00111758,-0.00369141,0.0000
 6920,-0.00165990,0.05199192,-0.00080748,-0.11403489,0.02883047,-0.0007
 3408,-0.01121621,0.01390703,-0.02116178,0.57868179,0.00169844,-0.00002
 815,0.00120444,-0.00008209,0.00004464,-0.00106997,0.00039058,0.0000076
 6,-0.00029441,0.00014991,0.00065363,0.03310793,-0.00510419,0.00009773,
 0.00225008,-0.04927900,0.00079798,-0.01822618,0.05613010,-0.00011921,-
 0.00045816,-0.00012514,0.00003651,0.00021624,-0.00000229,-0.00003199,-
 0.00018794,0.00003618,0.00009809,-0.00045916,-0.00012268,-0.00018794,0
 .00166689,-0.00025735,0.00109767,-0.04866107,-0.00790533,0.00292497,0.
 05093009,-0.00173183,0.00003344,0.00156363,0.00090949,0.00001868,0.000
 83731,-0.00006264,-0.00005409,0.00051412,0.00014942,0.00005183,-0.0157
 7030,0.00225593,-0.00014419,0.00037186,-0.01551689,-0.00881962,-0.2998
 5455,0.01698374,0.01106494,0.32727275,-0.00229562,-0.00028072,0.003595
 85,0.00006657,0.00141504,0.00004618,-0.00085837,-0.00253299,-0.0002978
 7,-0.02068227,0.02471975,-0.01140808,0.00090850,-0.00069714,0.00047973
 ,-0.10240629,0.10208195,-0.03649619,-0.00132975,0.00106754,-0.00087142
 ,0.11813345,-0.00042843,0.00003648,-0.00081090,-0.00007300,0.00006814,
 -0.00002238,-0.00000721,-0.00033508,0.00009340,0.00067371,0.00193955,-
 0.00026654,0.00049245,0.00026953,-0.00033577,0.09910862,-0.20914004,0.
 06281598,-0.00106391,0.00126998,0.00041799,-0.10666783,0.23298289,0.00
 111762,0.00024003,-0.00027919,0.00015515,0.00017427,0.00019654,0.00010
 657,0.00057466,0.00034083,0.00601133,-0.01192642,0.00502495,-0.0007121
 9,0.00017589,0.00034176,-0.03482388,0.06245850,-0.07405047,-0.01581561
 ,0.02629313,-0.00967826,0.04010810,-0.06785211,0.07427520,-0.00098026,
 -0.00024585,0.00282177,-0.00009603,-0.00110624,-0.00010577,-0.00065031
 ,0.00242671,-0.00033196,-0.02609125,-0.02722047,-0.00888198,0.00161198
 ,0.00082861,-0.00045658,-0.09933662,-0.04481627,-0.01443230,-0.0019908
 8,-0.00288994,-0.00112566,0.00846552,0.01138052,0.00370858,0.53516973,
 0.00336908,-0.00062373,-0.00008625,-0.00009435,0.00035487,0.00004379,0
 .00044245,-0.00046405,0.00006972,-0.00785588,0.00072889,0.00297819,0.0
 0085512,0.00059058,-0.00028570,-0.04063114,-0.14284826,-0.02472046,-0.
 00094994,-0.00215424,-0.00077994,-0.01698785,-0.02582739,-0.00902684,-
 0.04818126,0.49213627,0.00205989,-0.00053905,-0.00096892,0.00008831,0.
 00013322,0.00026083,0.00030068,-0.00082505,0.00044313,0.00332585,0.011
 70451,0.00594308,0.00053500,0.00038786,0.00040886,-0.01219615,-0.02199
 318,-0.08820562,-0.01824232,-0.02807828,-0.00744803,0.00546766,0.00797
 369,0.00265090,-0.01732997,-0.02452102,0.55206363,-0.00000680,0.000392
 57,-0.00040983,-0.00000957,-0.00010037,-0.00002747,0.00004383,0.000021
 21,0.00000414,0.00202751,-0.00053791,0.00067838,-0.00003455,-0.0000385
 7,0.00001664,0.00727217,-0.01613102,0.00656785,0.00067939,0.00097129,0
 .00030221,-0.00143476,-0.00376977,-0.00080755,-0.09992049,0.09843429,-
 0.03795356,0.10558819,-0.00086064,0.00055662,-0.00016252,-0.00001676,-
 0.00000710,-0.00005313,-0.00008104,-0.00021458,-0.00005508,0.00212475,
 0.00110030,-0.00010151,-0.00012010,-0.00015406,0.00008024,0.01056620,-
 0.02325546,0.00873319,0.00034593,0.00098563,-0.00038879,-0.00363436,-0
 .00341832,-0.00189812,0.09698715,-0.22666484,0.07114843,-0.10455428,0.
 24957867,0.00015166,-0.00001052,0.00005346,-0.00000846,0.00002062,-0.0
 0005211,0.00001956,-0.00005620,-0.00004036,0.00023386,0.00040613,-0.00
 009136,-0.00004785,0.00008101,-0.00004893,0.00449242,-0.00886868,0.003
 04589,0.00075199,0.00008580,0.00050861,-0.00128028,-0.00212206,0.00050
 898,-0.03756958,0.07172116,-0.07607739,0.04282793,-0.07681350,0.078020
 29,-0.00027483,-0.00029465,0.00078707,-0.00001288,-0.00017994,-0.00005
 092,-0.00015409,0.00047800,-0.00009230,-0.00067788,-0.00359930,-0.0026
 3301,0.00012568,0.00015744,0.00010528,-0.01453396,0.00156087,0.0065835
 3,0.00012227,0.00031529,-0.00051723,0.00089743,-0.00012162,0.00025470,
 -0.26738383,0.01202107,0.09308123,-0.01252305,0.00051345,0.00544609,0.
 29089979,-0.00131202,0.00035663,0.00064366,0.00000544,-0.00030319,-0.0
 0006983,-0.00029650,0.00056983,-0.00017106,-0.00153119,-0.00435462,-0.
 00308437,0.00013169,-0.00002348,0.00018146,-0.02606370,0.00032707,0.01
 202083,0.00063605,0.00102704,-0.00011374,0.00067271,0.00116774,0.00072
 548,0.01315624,-0.04768832,-0.00474062,0.02440317,-0.00051837,-0.01197
 457,-0.01089228,0.05057818,-0.00039121,0.00007509,0.00035154,0.0000201
 2,-0.00019066,0.00000269,-0.00008921,0.00024630,-0.00005956,-0.0001333
 6,-0.00153773,-0.00026144,-0.00038229,-0.00012525,0.00029867,-0.010310
 47,0.00003064,0.00340675,-0.00003177,0.00062204,0.00039186,0.00050014,
 0.00056738,0.00010335,0.09337817,-0.00411552,-0.08633797,-0.01093057,-
 0.00027900,0.00410580,-0.10205204,0.00662392,0.08980236,-0.00021398,0.
 00003389,0.00022007,0.00006175,-0.00005597,0.00016789,-0.00004582,-0.0
 0000897,0.00005086,0.00115076,0.00069647,-0.00152027,-0.00025902,-0.00
 012403,0.00051504,-0.00242818,-0.00067315,-0.01803745,-0.00138476,-0.0
 0328227,-0.00077511,0.00053561,0.00047647,0.00069718,-0.04879755,-0.00
 042160,-0.01913661,-0.00168188,-0.00127030,-0.01501736,0.00351536,0.00
 109040,0.03042249,0.04954771,-0.00018808,-0.00002961,0.00015672,0.0000
 9270,-0.00008200,0.00011507,-0.00003724,-0.00001168,0.00006031,0.00127
 851,0.00100909,-0.00040452,-0.00037357,0.00006560,0.00050502,-0.002320
 53,-0.00192860,-0.02853263,-0.00346658,-0.00417530,-0.00128651,0.00084
 389,0.00098652,0.00006153,-0.00031921,-0.04753979,-0.01065051,0.000909
 39,0.00201148,0.02753082,0.00004166,-0.00113850,-0.00191720,0.00353905
 ,0.05083278,-0.00031442,0.00004355,0.00039820,0.00017825,-0.00011082,0
 .00003334,-0.00008518,0.00007087,-0.00000180,0.00096092,0.00035738,0.0
 0044314,-0.00076398,-0.00009976,0.00040118,-0.00107184,-0.00102495,-0.
 00843114,-0.00061793,-0.00161101,0.00129100,0.00015617,-0.00045869,0.0
 0056541,-0.01967472,-0.01127712,-0.30273249,-0.00026817,-0.00021018,-0
 .00993288,-0.00091239,-0.00004117,-0.01180405,0.02241329,0.01436190,0.
 32977009\\-0.00004333,0.00000675,-0.00001399,0.00000916,-0.00001463,-0
 .00001215,-0.00001292,0.00000313,0.00001090,0.00001092,-0.00000180,0.0
 0001268,0.00001278,0.00000947,0.00000258,-0.00002387,0.00001103,-0.000
 01007,0.00003024,-0.00000955,-0.00001708,0.00001400,-0.00000414,-0.000
 00055,0.00001650,0.00003526,0.00005026,0.00000133,-0.00000967,0.000002
 18,0.00000038,-0.00000247,-0.00002105,-0.00001519,-0.00002340,-0.00000
 371\\\@


 MICHAEL FARADAY, ASKED BY A POLITICIAN WHAT GOOD
 HIS ELECTRICAL DISCOVERIES WERE, REPLIED 
 "AT PRESENT I DO NOT KNOW, BUT ONE DAY YOU WILL BE
 ABLE TO TAX THEM."
 Job cpu time:  0 days  0 hours 10 minutes 55.4 seconds.
 File lengths (MBytes):  RWF=     25 Int=      0 D2E=      0 Chk=     10 Scr=      1
 Normal termination of Gaussian 03 at Fri Nov 20 16:12:25 2009.
