 Entering Gaussian System, Link 0=g03
 Input=Butene_1-geom.com
 Output=Butene_1-geom.log
 Initial command:
 /home/g03/l1.exe /scratch/mrharper/Gau-21625.inp -scrdir=/scratch/mrharper/
 Entering Link 1 = /home/g03/l1.exe PID=     21627.
  
 Copyright (c) 1988,1990,1992,1993,1995,1998,2003,2004, Gaussian, Inc.
                  All Rights Reserved.
  
 This is the Gaussian(R) 03 program.  It is based on the
 the Gaussian(R) 98 system (copyright 1998, Gaussian, Inc.),
 the Gaussian(R) 94 system (copyright 1995, Gaussian, Inc.),
 the Gaussian 92(TM) system (copyright 1992, Gaussian, Inc.),
 the Gaussian 90(TM) system (copyright 1990, Gaussian, Inc.),
 the Gaussian 88(TM) system (copyright 1988, Gaussian, Inc.),
 the Gaussian 86(TM) system (copyright 1986, Carnegie Mellon
 University), and the Gaussian 82(TM) system (copyright 1983,
 Carnegie Mellon University). Gaussian is a federally registered
 trademark of Gaussian, Inc.
  
 This software contains proprietary and confidential information,
 including trade secrets, belonging to Gaussian, Inc.
  
 This software is provided under written license and may be
 used, copied, transmitted, or stored only in accord with that
 written license.
  
 The following legend is applicable only to US Government
 contracts under FAR:
  
                    RESTRICTED RIGHTS LEGEND
  
 Use, reproduction and disclosure by the US Government is
 subject to restrictions as set forth in subparagraphs (a)
 and (c) of the Commercial Computer Software - Restricted
 Rights clause in FAR 52.227-19.
  
 Gaussian, Inc.
 340 Quinnipiac St., Bldg. 40, Wallingford CT 06492
  
  
 ---------------------------------------------------------------
 Warning -- This program may not be used in any manner that
 competes with the business of Gaussian, Inc. or will provide
 assistance to any competitor of Gaussian, Inc.  The licensee
 of this program is prohibited from giving any competitor of
 Gaussian, Inc. access to this program.  By using this program,
 the user acknowledges that Gaussian, Inc. is engaged in the
 business of creating and licensing software in the field of
 computational chemistry and represents and warrants to the
 licensee that it is not a competitor of Gaussian, Inc. and that
 it will not use this program in any manner prohibited above.
 ---------------------------------------------------------------
  

 Cite this work as:
 Gaussian 03, Revision D.01,
 M. J. Frisch, G. W. Trucks, H. B. Schlegel, G. E. Scuseria, 
 M. A. Robb, J. R. Cheeseman, J. A. Montgomery, Jr., T. Vreven, 
 K. N. Kudin, J. C. Burant, J. M. Millam, S. S. Iyengar, J. Tomasi, 
 V. Barone, B. Mennucci, M. Cossi, G. Scalmani, N. Rega, 
 G. A. Petersson, H. Nakatsuji, M. Hada, M. Ehara, K. Toyota, 
 R. Fukuda, J. Hasegawa, M. Ishida, T. Nakajima, Y. Honda, O. Kitao, 
 H. Nakai, M. Klene, X. Li, J. E. Knox, H. P. Hratchian, J. B. Cross, 
 V. Bakken, C. Adamo, J. Jaramillo, R. Gomperts, R. E. Stratmann, 
 O. Yazyev, A. J. Austin, R. Cammi, C. Pomelli, J. W. Ochterski, 
 P. Y. Ayala, K. Morokuma, G. A. Voth, P. Salvador, J. J. Dannenberg, 
 V. G. Zakrzewski, S. Dapprich, A. D. Daniels, M. C. Strain, 
 O. Farkas, D. K. Malick, A. D. Rabuck, K. Raghavachari, 
 J. B. Foresman, J. V. Ortiz, Q. Cui, A. G. Baboul, S. Clifford, 
 J. Cioslowski, B. B. Stefanov, G. Liu, A. Liashenko, P. Piskorz, 
 I. Komaromi, R. L. Martin, D. J. Fox, T. Keith, M. A. Al-Laham, 
 C. Y. Peng, A. Nanayakkara, M. Challacombe, P. M. W. Gill, 
 B. Johnson, W. Chen, M. W. Wong, C. Gonzalez, and J. A. Pople, 
 Gaussian, Inc., Wallingford CT, 2004.
 
 ******************************************
 Gaussian 03:  AM64L-G03RevD.01 13-Oct-2005
                20-Nov-2009 
 ******************************************
 %chk=Butene_1-geom.chk
 %mem=1000mb
 %nproc=8
 Will use up to    8 processors via shared memory.
 --------------------
 # opt=calcfc cbs-qb3
 --------------------
 1/10=4,14=-1,18=20,26=3,38=1/1,3;
 2/9=110,17=6,18=5,40=1/2;
 3/5=4,6=6,7=700,11=2,16=1,25=1,30=1,74=-5/1,2,3;
 4//1;
 5/5=2,38=5/2;
 8/6=4,10=90,11=11/1;
 11/6=1,8=1,9=11,15=111,16=1/1,2,10;
 10/6=1,7=6/2;
 6/7=2,8=2,9=2,10=2,28=1/1;
 7/10=1,18=20,25=1/1,2,3,16;
 1/10=4,14=-1,18=20/3(3);
 2/9=110/2;
 6/7=2,8=2,9=2,10=2,19=2,28=1/1;
 99//99;
 2/9=110/2;
 3/5=4,6=6,7=700,11=2,16=1,25=1,30=1,74=-5/1,2,3;
 4/5=5,16=3/1;
 5/5=2,38=5/2;
 7//1,2,3,16;
 1/14=-1,18=20/3(-5);
 2/9=110/2;
 6/7=2,8=2,9=2,10=2,19=2,28=1/1;
 99/9=1/99;
 -------------
 1-butene geom
 -------------
 Symbolic Z-matrix:
 Charge =  0 Multiplicity = 1
 C
 H                    1    B1
 H                    1    B2       2    A1
 C                    1    B3       3    A2       2    D1       0
 H                    4    B4       1    A3       3    D2       0
 C                    4    B5       1    A4       3    D3       0
 H                    6    B6       4    A5       1    D4       0
 H                    6    B7       4    A6       1    D5       0
 C                    6    B8       4    A7       1    D6       0
 H                    9    B9       6    A8       4    D7       0
 H                    9    B10      6    A9       4    D8       0
 H                    9    B11      6    A10      4    D9       0
       Variables:
  B1                    1.08856                  
  B2                    1.08688                  
  B3                    1.33345                  
  B4                    1.09215                  
  B5                    1.5049                   
  B6                    1.09743                  
  B7                    1.10047                  
  B8                    1.53797                  
  B9                    1.09561                  
  B10                   1.0959                   
  B11                   1.09677                  
  A1                  116.47049                  
  A2                  121.91029                  
  A3                  118.97092                  
  A4                  125.38942                  
  A5                  109.55295                  
  A6                  109.25718                  
  A7                  112.74425                  
  A8                  110.92848                  
  A9                  111.04791                  
  A10                 111.17128                  
  D1                  179.81028                  
  D2                    0.36436                  
  D3                  179.58562                  
  D4                    2.72964                  
  D5                  119.0803                   
  D6                 -120.00015                  
  D7                   61.41235                  
  D8                 -178.27257                  
  D9                  -58.3482                   
 

 GradGradGradGradGradGradGradGradGradGradGradGradGradGradGradGradGradGrad
 Berny optimization.
 Initialization pass.
                           ----------------------------
                           !    Initial Parameters    !
                           ! (Angstroms and Degrees)  !
 --------------------------                            --------------------------
 ! Name  Definition              Value          Derivative Info.                !
 --------------------------------------------------------------------------------
 ! R1    R(1,2)                  1.0886         calculate D2E/DX2 analytically  !
 ! R2    R(1,3)                  1.0869         calculate D2E/DX2 analytically  !
 ! R3    R(1,4)                  1.3335         calculate D2E/DX2 analytically  !
 ! R4    R(4,5)                  1.0921         calculate D2E/DX2 analytically  !
 ! R5    R(4,6)                  1.5049         calculate D2E/DX2 analytically  !
 ! R6    R(6,7)                  1.0974         calculate D2E/DX2 analytically  !
 ! R7    R(6,8)                  1.1005         calculate D2E/DX2 analytically  !
 ! R8    R(6,9)                  1.538          calculate D2E/DX2 analytically  !
 ! R9    R(9,10)                 1.0956         calculate D2E/DX2 analytically  !
 ! R10   R(9,11)                 1.0959         calculate D2E/DX2 analytically  !
 ! R11   R(9,12)                 1.0968         calculate D2E/DX2 analytically  !
 ! A1    A(2,1,3)              116.4705         calculate D2E/DX2 analytically  !
 ! A2    A(2,1,4)              121.6189         calculate D2E/DX2 analytically  !
 ! A3    A(3,1,4)              121.9103         calculate D2E/DX2 analytically  !
 ! A4    A(1,4,5)              118.9709         calculate D2E/DX2 analytically  !
 ! A5    A(1,4,6)              125.3894         calculate D2E/DX2 analytically  !
 ! A6    A(5,4,6)              115.6355         calculate D2E/DX2 analytically  !
 ! A7    A(4,6,7)              109.553          calculate D2E/DX2 analytically  !
 ! A8    A(4,6,8)              109.2572         calculate D2E/DX2 analytically  !
 ! A9    A(4,6,9)              112.7442         calculate D2E/DX2 analytically  !
 ! A10   A(7,6,8)              106.528          calculate D2E/DX2 analytically  !
 ! A11   A(7,6,9)              109.9065         calculate D2E/DX2 analytically  !
 ! A12   A(8,6,9)              108.6541         calculate D2E/DX2 analytically  !
 ! A13   A(6,9,10)             110.9285         calculate D2E/DX2 analytically  !
 ! A14   A(6,9,11)             111.0479         calculate D2E/DX2 analytically  !
 ! A15   A(6,9,12)             111.1713         calculate D2E/DX2 analytically  !
 ! A16   A(10,9,11)            108.1624         calculate D2E/DX2 analytically  !
 ! A17   A(10,9,12)            107.6577         calculate D2E/DX2 analytically  !
 ! A18   A(11,9,12)            107.7245         calculate D2E/DX2 analytically  !
 ! D1    D(2,1,4,5)           -179.8351         calculate D2E/DX2 analytically  !
 ! D2    D(2,1,4,6)             -0.6138         calculate D2E/DX2 analytically  !
 ! D3    D(3,1,4,5)              0.3644         calculate D2E/DX2 analytically  !
 ! D4    D(3,1,4,6)            179.5856         calculate D2E/DX2 analytically  !
 ! D5    D(1,4,6,7)              2.7296         calculate D2E/DX2 analytically  !
 ! D6    D(1,4,6,8)            119.0803         calculate D2E/DX2 analytically  !
 ! D7    D(1,4,6,9)           -120.0001         calculate D2E/DX2 analytically  !
 ! D8    D(5,4,6,7)           -178.026          calculate D2E/DX2 analytically  !
 ! D9    D(5,4,6,8)            -61.6754         calculate D2E/DX2 analytically  !
 ! D10   D(5,4,6,9)             59.2442         calculate D2E/DX2 analytically  !
 ! D11   D(4,6,9,10)            61.4123         calculate D2E/DX2 analytically  !
 ! D12   D(4,6,9,11)          -178.2726         calculate D2E/DX2 analytically  !
 ! D13   D(4,6,9,12)           -58.3482         calculate D2E/DX2 analytically  !
 ! D14   D(7,6,9,10)           -61.1194         calculate D2E/DX2 analytically  !
 ! D15   D(7,6,9,11)            59.1957         calculate D2E/DX2 analytically  !
 ! D16   D(7,6,9,12)           179.1201         calculate D2E/DX2 analytically  !
 ! D17   D(8,6,9,10)          -177.3246         calculate D2E/DX2 analytically  !
 ! D18   D(8,6,9,11)           -57.0095         calculate D2E/DX2 analytically  !
 ! D19   D(8,6,9,12)            62.9149         calculate D2E/DX2 analytically  !
 --------------------------------------------------------------------------------
 Trust Radius=3.00D-01 FncErr=1.00D-07 GrdErr=1.00D-06
 Number of steps in this run=  58 maximum allowed number of steps= 100.
 GradGradGradGradGradGradGradGradGradGradGradGradGradGradGradGradGradGrad

                          Input orientation:                          
 ---------------------------------------------------------------------
 Center     Atomic     Atomic              Coordinates (Angstroms)
 Number     Number      Type              X           Y           Z
 ---------------------------------------------------------------------
    1          6             0        0.000000    0.000000    0.000000
    2          1             0        0.000000    0.000000    1.088557
    3          1             0        0.972935    0.000000   -0.484462
    4          6             0       -1.135502    0.003748   -0.699087
    5          1             0       -1.085056    0.000831   -1.790065
    6          6             0       -2.520853   -0.004822   -0.111338
    7          1             0       -2.455606    0.034593    0.983445
    8          1             0       -3.054295    0.904789   -0.426120
    9          6             0       -3.342385   -1.231188   -0.543150
   10          1             0       -2.867317   -2.159013   -0.205785
   11          1             0       -4.354621   -1.193991   -0.124827
   12          1             0       -3.433944   -1.282192   -1.634901
 ---------------------------------------------------------------------
                    Distance matrix (angstroms):
                    1          2          3          4          5
     1  C    0.000000
     2  H    1.088557   0.000000
     3  H    1.086879   1.849593   0.000000
     4  C    1.333455   2.117794   2.119336   0.000000
     5  H    2.093246   3.076331   2.437197   1.092148   0.000000
     6  C    2.523315   2.791858   3.513659   1.504898   2.208997
     7  H    2.645442   2.458098   3.729724   2.138817   3.093849
     8  H    3.213867   3.527267   4.128030   2.137324   2.560350
     9  C    3.603106   3.917886   4.487901   2.533716   2.858006
    10  H    3.595163   3.815517   4.414356   2.814261   3.217347
    11  H    4.517070   4.675537   5.471546   3.482396   3.858843
    12  H    4.013588   4.566531   4.731607   2.795035   2.680951
                    6          7          8          9         10
     6  C    0.000000
     7  H    1.097434   0.000000
     8  H    1.100473   1.761404   0.000000
     9  C    1.537969   2.172342   2.158492   0.000000
    10  H    2.183917   2.528969   3.077400   1.095611   0.000000
    11  H    2.185637   2.518719   2.487268   1.095901   1.774794
    12  H    2.187842   3.089790   2.527483   1.096770   1.769816
                   11         12
    11  H    0.000000
    12  H    1.770804   0.000000
 Stoichiometry    C4H8
 Framework group  C1[X(C4H8)]
 Deg. of freedom    30
 Full point group                 C1
 Largest Abelian subgroup         C1      NOp   1
 Largest concise Abelian subgroup C1      NOp   1
                         Standard orientation:                         
 ---------------------------------------------------------------------
 Center     Atomic     Atomic              Coordinates (Angstroms)
 Number     Number      Type              X           Y           Z
 ---------------------------------------------------------------------
    1          6             0       -1.862968    0.018739   -0.277598
    2          1             0       -1.962901    0.934050   -0.858266
    3          1             0       -2.741319   -0.619152   -0.223742
    4          6             0       -0.722904   -0.298212    0.337136
    5          1             0       -0.669712   -1.228932    0.906099
    6          6             0        0.539739    0.520076    0.307877
    7          1             0        0.365397    1.444344   -0.257538
    8          1             0        0.798821    0.824454    1.333192
    9          6             0        1.730424   -0.245170   -0.293802
   10          1             0        1.530159   -0.525591   -1.333812
   11          1             0        2.640847    0.364522   -0.273639
   12          1             0        1.932958   -1.166293    0.266033
 ---------------------------------------------------------------------
 Rotational constants (GHZ):     22.6916491      4.1156796      4.0195301
 Standard basis: CBSB7 (5D, 7F)
 There are   120 symmetry adapted basis functions of A   symmetry.
 Integral buffers will be    131072 words long.
 Raffenetti 2 integral format.
 Two-electron integral symmetry is turned on.
   120 basis functions,   192 primitive gaussians,   124 cartesian basis functions
    16 alpha electrons       16 beta electrons
       nuclear repulsion energy       116.7888635522 Hartrees.
 NAtoms=   12 NActive=   12 NUniq=   12 SFac= 7.50D-01 NAtFMM=   80 NAOKFM=F Big=F
 One-electron integrals computed using PRISM.
 NBasis=   120 RedAO= T  NBF=   120
 NBsUse=   120 1.00D-06 NBFU=   120
 Harris functional with IExCor=  402 diagonalized for initial guess.
 ExpMin= 1.03D-01 ExpMax= 4.56D+03 ExpMxC= 6.82D+02 IAcc=1 IRadAn=         1 AccDes= 1.00D-06
 HarFok:  IExCor= 402 AccDes= 1.00D-06 IRadAn=         1 IDoV=1
 ScaDFX=  1.000000  1.000000  1.000000  1.000000
 Initial guess orbital symmetries:
       Occupied  (A) (A) (A) (A) (A) (A) (A) (A) (A) (A) (A) (A)
                 (A) (A) (A) (A)
       Virtual   (A) (A) (A) (A) (A) (A) (A) (A) (A) (A) (A) (A)
                 (A) (A) (A) (A) (A) (A) (A) (A) (A) (A) (A) (A)
                 (A) (A) (A) (A) (A) (A) (A) (A) (A) (A) (A) (A)
                 (A) (A) (A) (A) (A) (A) (A) (A) (A) (A) (A) (A)
                 (A) (A) (A) (A) (A) (A) (A) (A) (A) (A) (A) (A)
                 (A) (A) (A) (A) (A) (A) (A) (A) (A) (A) (A) (A)
                 (A) (A) (A) (A) (A) (A) (A) (A) (A) (A) (A) (A)
                 (A) (A) (A) (A) (A) (A) (A) (A) (A) (A) (A) (A)
                 (A) (A) (A) (A) (A) (A) (A) (A)
 The electronic state of the initial guess is 1-A.
 Requested convergence on RMS density matrix=1.00D-08 within 128 cycles.
 Requested convergence on MAX density matrix=1.00D-06.
 Requested convergence on             energy=1.00D-06.
 No special actions if energy rises.
 Keep R1 integrals in memory in canonical form, NReq=    32005243.
 Integral accuracy reduced to 1.0D-05 until final iterations.
 Initial convergence to 1.0D-05 achieved.  Increase integral accuracy.
 SCF Done:  E(RB+HF-LYP) =  -157.268028367     A.U. after   13 cycles
             Convg  =    0.5570D-08             -V/T =  2.0054
             S**2   =   0.0000
 Range of M.O.s used for correlation:     1   120
 NBasis=   120 NAE=    16 NBE=    16 NFC=     0 NFV=     0
 NROrb=    120 NOA=    16 NOB=    16 NVA=   104 NVB=   104
 Symmetrizing basis deriv contribution to polar:
 IMax=3 JMax=2 DiffMx= 0.00D+00
 G2DrvN: will do   13 centers at a time, making    1 passes doing MaxLOS=2.
 FoFDir/FoFCou used for L=0 through L=2.
 DoAtom=TTTTTTTTTTTT
          Differentiating once with respect to electric field.
                with respect to dipole field.
          Differentiating once with respect to nuclear coordinates.
          Store integrals in memory, NReq=    30858744.
          There are  39 degrees of freedom in the 1st order CPHF.
    36 vectors were produced by pass  0.
 AX will form  36 AO Fock derivatives at one time.
    36 vectors were produced by pass  1.
    36 vectors were produced by pass  2.
    36 vectors were produced by pass  3.
     8 vectors were produced by pass  4.
     3 vectors were produced by pass  5.
 Inv2:  IOpt= 1 Iter= 1 AM= 1.39D-15 Conv= 1.00D-12.
 Inverted reduced A of dimension  155 with in-core refinement.
 Isotropic polarizability for W=    0.000000       47.05 Bohr**3.
 End of Minotr Frequency-dependent properties file   721 does not exist.

 **********************************************************************

            Population analysis using the SCF density.

 **********************************************************************

 Orbital symmetries:
       Occupied  (A) (A) (A) (A) (A) (A) (A) (A) (A) (A) (A) (A)
                 (A) (A) (A) (A)
       Virtual   (A) (A) (A) (A) (A) (A) (A) (A) (A) (A) (A) (A)
                 (A) (A) (A) (A) (A) (A) (A) (A) (A) (A) (A) (A)
                 (A) (A) (A) (A) (A) (A) (A) (A) (A) (A) (A) (A)
                 (A) (A) (A) (A) (A) (A) (A) (A) (A) (A) (A) (A)
                 (A) (A) (A) (A) (A) (A) (A) (A) (A) (A) (A) (A)
                 (A) (A) (A) (A) (A) (A) (A) (A) (A) (A) (A) (A)
                 (A) (A) (A) (A) (A) (A) (A) (A) (A) (A) (A) (A)
                 (A) (A) (A) (A) (A) (A) (A) (A) (A) (A) (A) (A)
                 (A) (A) (A) (A) (A) (A) (A) (A)
 The electronic state is 1-A.
 Alpha  occ. eigenvalues --  -10.17297 -10.17221 -10.16254 -10.15974  -0.79985
 Alpha  occ. eigenvalues --   -0.72856  -0.62810  -0.55376  -0.47123  -0.44308
 Alpha  occ. eigenvalues --   -0.42606  -0.38399  -0.37500  -0.34507  -0.33619
 Alpha  occ. eigenvalues --   -0.25978
 Alpha virt. eigenvalues --    0.01006   0.05221   0.07043   0.07721   0.09351
 Alpha virt. eigenvalues --    0.12083   0.12668   0.13151   0.14686   0.20344
 Alpha virt. eigenvalues --    0.24702   0.29335   0.30287   0.32032   0.33016
 Alpha virt. eigenvalues --    0.34218   0.36838   0.40147   0.44437   0.46183
 Alpha virt. eigenvalues --    0.53142   0.54290   0.56547   0.57229   0.57765
 Alpha virt. eigenvalues --    0.59482   0.60640   0.61205   0.62326   0.62595
 Alpha virt. eigenvalues --    0.67961   0.69755   0.79012   0.81808   0.88505
 Alpha virt. eigenvalues --    0.92561   0.96699   1.06489   1.12347   1.13874
 Alpha virt. eigenvalues --    1.24159   1.28799   1.37960   1.40892   1.42457
 Alpha virt. eigenvalues --    1.46224   1.46947   1.49796   1.52274   1.52577
 Alpha virt. eigenvalues --    1.56988   1.58254   1.61730   1.66284   1.68445
 Alpha virt. eigenvalues --    1.68708   1.74826   1.75671   1.77850   1.84193
 Alpha virt. eigenvalues --    1.87220   1.96737   1.98579   2.00678   2.08626
 Alpha virt. eigenvalues --    2.10393   2.13427   2.15491   2.16874   2.23359
 Alpha virt. eigenvalues --    2.28192   2.34143   2.37533   2.39941   2.43041
 Alpha virt. eigenvalues --    2.48969   2.49811   2.53319   2.55880   2.56943
 Alpha virt. eigenvalues --    2.57254   2.59765   2.64652   2.68090   2.68755
 Alpha virt. eigenvalues --    2.77411   2.80519   2.80768   2.90573   3.04047
 Alpha virt. eigenvalues --    3.05468   3.28503   3.46852   3.71366   3.78888
 Alpha virt. eigenvalues --    3.79014   3.82759   3.95804   4.17365   4.32572
 Alpha virt. eigenvalues --   23.70230  23.84967  23.92702  24.26457
          Condensed to atoms (all electrons):
              1          2          3          4          5          6
     1  C    4.837648   0.410216   0.406306   0.650501  -0.037215  -0.062974
     2  H    0.410216   0.574006  -0.043198  -0.041290   0.008506  -0.012302
     3  H    0.406306  -0.043198   0.570282  -0.032050  -0.012014   0.007483
     4  C    0.650501  -0.041290  -0.032050   4.920704   0.405332   0.374726
     5  H   -0.037215   0.008506  -0.012014   0.405332   0.584124  -0.049554
     6  C   -0.062974  -0.012302   0.007483   0.374726  -0.049554   4.889081
     7  H   -0.003861   0.005660   0.000027  -0.045294   0.007584   0.409766
     8  H    0.000683   0.000330  -0.000499  -0.037103  -0.003354   0.401463
     9  C    0.000049   0.000257  -0.000394  -0.069602  -0.001854   0.359795
    10  H    0.002539   0.000215  -0.000128  -0.000141  -0.000261  -0.038529
    11  H   -0.000212  -0.000065   0.000030   0.008165  -0.000319  -0.030010
    12  H    0.000222   0.000029   0.000011  -0.005719   0.004139  -0.036533
              7          8          9         10         11         12
     1  C   -0.003861   0.000683   0.000049   0.002539  -0.000212   0.000222
     2  H    0.005660   0.000330   0.000257   0.000215  -0.000065   0.000029
     3  H    0.000027  -0.000499  -0.000394  -0.000128   0.000030   0.000011
     4  C   -0.045294  -0.037103  -0.069602  -0.000141   0.008165  -0.005719
     5  H    0.007584  -0.003354  -0.001854  -0.000261  -0.000319   0.004139
     6  C    0.409766   0.401463   0.359795  -0.038529  -0.030010  -0.036533
     7  H    0.592627  -0.034737  -0.035030  -0.007406  -0.005149   0.008530
     8  H   -0.034737   0.601613  -0.043561   0.009670  -0.005381  -0.006730
     9  C   -0.035030  -0.043561   4.888916   0.399713   0.397386   0.403177
    10  H   -0.007406   0.009670   0.399713   0.583017  -0.027689  -0.032044
    11  H   -0.005149  -0.005381   0.397386  -0.027689   0.585700  -0.029411
    12  H    0.008530  -0.006730   0.403177  -0.032044  -0.029411   0.590484
 Mulliken atomic charges:
              1
     1  C   -0.203903
     2  H    0.097637
     3  H    0.104144
     4  C   -0.128231
     5  H    0.094885
     6  C   -0.212412
     7  H    0.107281
     8  H    0.117605
     9  C   -0.298852
    10  H    0.111044
    11  H    0.106954
    12  H    0.103846
 Sum of Mulliken charges=   0.00000
 Atomic charges with hydrogens summed into heavy atoms:
              1
     1  C   -0.002122
     2  H    0.000000
     3  H    0.000000
     4  C   -0.033345
     5  H    0.000000
     6  C    0.012474
     7  H    0.000000
     8  H    0.000000
     9  C    0.022992
    10  H    0.000000
    11  H    0.000000
    12  H    0.000000
 Sum of Mulliken charges=   0.00000
 APT atomic charges:
              1
     1  C   -0.116059
     2  H    0.022838
     3  H    0.023699
     4  C    0.048575
     5  H   -0.000991
     6  C    0.104422
     7  H   -0.042339
     8  H   -0.047772
     9  C    0.090234
    10  H   -0.020875
    11  H   -0.037652
    12  H   -0.024080
 Sum of APT charges=   0.00000
 APT Atomic charges with hydrogens summed into heavy atoms:
              1
     1  C   -0.069521
     2  H    0.000000
     3  H    0.000000
     4  C    0.047584
     5  H    0.000000
     6  C    0.014311
     7  H    0.000000
     8  H    0.000000
     9  C    0.007627
    10  H    0.000000
    11  H    0.000000
    12  H    0.000000
 Sum of APT charges=   0.00000
 Electronic spatial extent (au):  <R**2>=   369.9014
 Charge=     0.0000 electrons
 Dipole moment (field-independent basis, Debye):
    X=     0.3353    Y=     0.0397    Z=     0.1030  Tot=     0.3530
 Quadrupole moment (field-independent basis, Debye-Ang):
   XX=   -26.7789   YY=   -26.5733   ZZ=   -27.5436
   XY=     0.5173   XZ=     0.8105   YZ=    -1.2088
 Traceless Quadrupole moment (field-independent basis, Debye-Ang):
   XX=     0.1864   YY=     0.3919   ZZ=    -0.5783
   XY=     0.5173   XZ=     0.8105   YZ=    -1.2088
 Octapole moment (field-independent basis, Debye-Ang**2):
  XXX=    -2.1569  YYY=     0.0805  ZZZ=     0.4906  XYY=    -0.2840
  XXY=    -0.6971  XXZ=    -1.4194  XZZ=     1.6127  YZZ=     0.2591
  YYZ=     0.4196  XYZ=     1.3866
 Hexadecapole moment (field-independent basis, Debye-Ang**3):
 XXXX=  -370.7767 YYYY=   -76.0887 ZZZZ=   -66.4169 XXXY=     8.8802
 XXXZ=     5.4911 YYYX=     0.0284 YYYZ=    -3.6517 ZZZX=     0.6224
 ZZZY=    -0.3028 XXYY=   -74.1863 XXZZ=   -77.6836 YYZZ=   -23.0842
 XXYZ=    -2.7516 YYXZ=     0.9944 ZZXY=    -0.6501
 N-N= 1.167888635522D+02 E-N=-5.973314966141D+02  KE= 1.564292866106D+02
  Exact polarizability:  60.881  -0.567  41.375   6.006  -3.616  38.896
 Approx polarizability:  78.873  -2.747  57.095  12.451  -6.528  56.316
 ***** Axes restored to original set *****
 -------------------------------------------------------------------
 Center     Atomic                   Forces (Hartrees/Bohr)
 Number     Number              X              Y              Z
 -------------------------------------------------------------------
    1          6          -0.001885831    0.000010344   -0.001330129
    2          1          -0.000361121   -0.000024946   -0.001561059
    3          1          -0.001751222   -0.000001318    0.000374353
    4          6           0.002652232    0.000234061    0.001363588
    5          1           0.000128176    0.000047099    0.001548522
    6          6          -0.000154517    0.000755637    0.000794466
    7          1           0.000032723   -0.000026593   -0.001674666
    8          1           0.001142568   -0.001293553    0.000299813
    9          6          -0.000694056   -0.001034314   -0.000366496
   10          1          -0.000721163    0.001337582   -0.000433200
   11          1           0.001527486   -0.000090341   -0.000630264
   12          1           0.000084723    0.000086340    0.001615072
 -------------------------------------------------------------------
 Cartesian Forces:  Max     0.002652232 RMS     0.001042313

 GradGradGradGradGradGradGradGradGradGradGradGradGradGradGradGradGradGrad
 Berny optimization.
 Internal  Forces:  Max     0.004716377 RMS     0.000982970
 Search for a local minimum.
 Step number   1 out of a maximum of  58
 All quantities printed in internal units (Hartrees-Bohrs-Radians)
 Second derivative matrix not updated -- analytic derivatives used.
     Eigenvalues ---    0.00225   0.00250   0.01886   0.03114   0.03839
     Eigenvalues ---    0.04032   0.04318   0.04552   0.04581   0.07710
     Eigenvalues ---    0.10323   0.10603   0.11268   0.12043   0.12765
     Eigenvalues ---    0.13544   0.15589   0.16847   0.19700   0.28054
     Eigenvalues ---    0.30203   0.31831   0.32589   0.32765   0.33034
     Eigenvalues ---    0.33719   0.33985   0.34796   0.35200   0.61512
     Eigenvalues --- 1000.000001000.000001000.000001000.000001000.00000
     Eigenvalues --- 1000.000001000.000001000.000001000.000001000.00000
     Eigenvalues --- 1000.000001000.000001000.000001000.000001000.00000
     Eigenvalues --- 1000.000001000.000001000.00000
 RFO step:  Lambda=-1.11391768D-04.
 Linear search not attempted -- first point.
 Iteration  1 RMS(Cart)=  0.00770997 RMS(Int)=  0.00002483
 Iteration  2 RMS(Cart)=  0.00003176 RMS(Int)=  0.00000066
 Iteration  3 RMS(Cart)=  0.00000000 RMS(Int)=  0.00000066
 Variable       Old X    -DE/DX   Delta X   Delta X   Delta X     New X
                                 (Linear)    (Quad)   (Total)
    R1        2.05708  -0.00155   0.00000  -0.00439  -0.00439   2.05269
    R2        2.05390  -0.00174   0.00000  -0.00490  -0.00490   2.04900
    R3        2.51986  -0.00472   0.00000  -0.00721  -0.00721   2.51266
    R4        2.06386  -0.00154   0.00000  -0.00428  -0.00428   2.05958
    R5        2.84385  -0.00129   0.00000  -0.00347  -0.00347   2.84038
    R6        2.07385  -0.00167   0.00000  -0.00504  -0.00504   2.06881
    R7        2.07959  -0.00171   0.00000  -0.00523  -0.00523   2.07436
    R8        2.90634  -0.00039   0.00000  -0.00102  -0.00102   2.90532
    R9        2.07040  -0.00158   0.00000  -0.00471  -0.00471   2.06570
   R10        2.07095  -0.00166   0.00000  -0.00489  -0.00489   2.06606
   R11        2.07259  -0.00161   0.00000  -0.00487  -0.00487   2.06773
    A1        2.03279   0.00055   0.00000   0.00413   0.00413   2.03693
    A2        2.12265  -0.00020   0.00000  -0.00144  -0.00144   2.12121
    A3        2.12774  -0.00035   0.00000  -0.00269  -0.00269   2.12505
    A4        2.07643  -0.00021   0.00000  -0.00145  -0.00145   2.07499
    A5        2.18846  -0.00001   0.00000   0.00065   0.00065   2.18911
    A6        2.01822   0.00021   0.00000   0.00080   0.00080   2.01902
    A7        1.91206  -0.00013   0.00000  -0.00075  -0.00075   1.91131
    A8        1.90690  -0.00038   0.00000  -0.00381  -0.00381   1.90309
    A9        1.96776   0.00030   0.00000   0.00157   0.00157   1.96932
   A10        1.85926   0.00008   0.00000   0.00129   0.00128   1.86055
   A11        1.91823  -0.00004   0.00000   0.00037   0.00037   1.91860
   A12        1.89637   0.00015   0.00000   0.00131   0.00131   1.89768
   A13        1.93607   0.00000   0.00000  -0.00040  -0.00040   1.93566
   A14        1.93815   0.00003   0.00000  -0.00025  -0.00025   1.93790
   A15        1.94030   0.00002   0.00000   0.00024   0.00024   1.94054
   A16        1.88779  -0.00004   0.00000  -0.00027  -0.00027   1.88752
   A17        1.87898   0.00002   0.00000   0.00074   0.00074   1.87972
   A18        1.88015  -0.00003   0.00000  -0.00002  -0.00002   1.88013
    D1       -3.13871   0.00002   0.00000   0.00012   0.00012  -3.13859
    D2       -0.01071   0.00003   0.00000   0.00071   0.00071  -0.01000
    D3        0.00636   0.00000   0.00000  -0.00023  -0.00023   0.00613
    D4        3.13436   0.00000   0.00000   0.00037   0.00037   3.13473
    D5        0.04764   0.00012   0.00000   0.01282   0.01282   0.06046
    D6        2.07834  -0.00008   0.00000   0.01178   0.01178   2.09012
    D7       -2.09440   0.00005   0.00000   0.01181   0.01181  -2.08259
    D8       -3.10714   0.00012   0.00000   0.01338   0.01338  -3.09376
    D9       -1.07644  -0.00007   0.00000   0.01234   0.01234  -1.06410
   D10        1.03401   0.00005   0.00000   0.01237   0.01237   1.04638
   D11        1.07185   0.00009   0.00000   0.00223   0.00223   1.07408
   D12       -3.11144   0.00006   0.00000   0.00145   0.00145  -3.11000
   D13       -1.01837   0.00005   0.00000   0.00141   0.00141  -1.01696
   D14       -1.06673   0.00007   0.00000   0.00184   0.00184  -1.06490
   D15        1.03316   0.00004   0.00000   0.00106   0.00106   1.03422
   D16        3.12623   0.00003   0.00000   0.00102   0.00102   3.12726
   D17       -3.09490  -0.00009   0.00000  -0.00066  -0.00066  -3.09555
   D18       -0.99500  -0.00012   0.00000  -0.00144  -0.00144  -0.99644
   D19        1.09807  -0.00013   0.00000  -0.00147  -0.00147   1.09660
         Item               Value     Threshold  Converged?
 Maximum Force            0.004716     0.000450     NO 
 RMS     Force            0.000983     0.000300     NO 
 Maximum Displacement     0.025977     0.001800     NO 
 RMS     Displacement     0.007708     0.001200     NO 
 Predicted change in Energy=-5.576546D-05
 GradGradGradGradGradGradGradGradGradGradGradGradGradGradGradGradGradGrad

                          Input orientation:                          
 ---------------------------------------------------------------------
 Center     Atomic     Atomic              Coordinates (Angstroms)
 Number     Number      Type              X           Y           Z
 ---------------------------------------------------------------------
    1          6             0       -0.004176   -0.003930   -0.000835
    2          1             0       -0.006153   -0.013746    1.085355
    3          1             0        0.965313   -0.001145   -0.486380
    4          6             0       -1.136163    0.007629   -0.698274
    5          1             0       -1.083843    0.014371   -1.786879
    6          6             0       -2.520439   -0.003495   -0.112733
    7          1             0       -2.455867    0.039733    0.979274
    8          1             0       -3.051426    0.902766   -0.431632
    9          6             0       -3.339535   -1.232055   -0.540997
   10          1             0       -2.864986   -2.155642   -0.199382
   11          1             0       -4.349977   -1.194404   -0.125155
   12          1             0       -3.429393   -1.287326   -1.630093
 ---------------------------------------------------------------------
                    Distance matrix (angstroms):
                    1          2          3          4          5
     1  C    0.000000
     2  H    1.086236   0.000000
     3  H    1.084284   1.847771   0.000000
     4  C    1.329642   2.111565   2.112150   0.000000
     5  H    2.087095   3.067887   2.427051   1.089883   0.000000
     6  C    2.518750   2.785167   3.505722   1.503065   2.206104
     7  H    2.640702   2.452592   3.722135   2.134670   3.087830
     8  H    3.208336   3.523483   4.117554   2.130869   2.548986
     9  C    3.595092   3.903938   4.477705   2.533062   2.862508
    10  H    3.585180   3.796207   4.404023   2.813799   3.225147
    11  H    4.507624   4.661340   5.459548   3.478786   3.858769
    12  H    4.004210   4.551289   4.719723   2.793583   2.687118
                    6          7          8          9         10
     6  C    0.000000
     7  H    1.094768   0.000000
     8  H    1.097704   1.757889   0.000000
     9  C    1.537429   2.170147   2.156949   0.000000
    10  H    2.181274   2.525129   3.072875   1.093119   0.000000
    11  H    2.183032   2.516051   2.485616   1.093314   1.770505
    12  H    2.185590   3.085067   2.525009   1.094194   1.766200
                   11         12
    11  H    0.000000
    12  H    1.766621   0.000000
 Stoichiometry    C4H8
 Framework group  C1[X(C4H8)]
 Deg. of freedom    30
 Full point group                 C1
 Largest Abelian subgroup         C1      NOp   1
 Largest concise Abelian subgroup C1      NOp   1
                         Standard orientation:                         
 ---------------------------------------------------------------------
 Center     Atomic     Atomic              Coordinates (Angstroms)
 Number     Number      Type              X           Y           Z
 ---------------------------------------------------------------------
    1          6             0       -1.857741    0.017148   -0.280852
    2          1             0       -1.951598    0.924060   -0.871285
    3          1             0       -2.734037   -0.618678   -0.221665
    4          6             0       -0.724160   -0.293932    0.340573
    5          1             0       -0.676902   -1.216312    0.919215
    6          6             0        0.539011    0.520037    0.308032
    7          1             0        0.365408    1.442036   -0.256146
    8          1             0        0.796670    0.822329    1.331352
    9          6             0        1.727617   -0.246891   -0.294236
   10          1             0        1.526682   -0.525233   -1.332051
   11          1             0        2.636822    0.359975   -0.274373
   12          1             0        1.928593   -1.166353    0.263848
 ---------------------------------------------------------------------
 Rotational constants (GHZ):     22.6883812      4.1289297      4.0366323
 Standard basis: CBSB7 (5D, 7F)
 There are   120 symmetry adapted basis functions of A   symmetry.
 Integral buffers will be    131072 words long.
 Raffenetti 2 integral format.
 Two-electron integral symmetry is turned on.
   120 basis functions,   192 primitive gaussians,   124 cartesian basis functions
    16 alpha electrons       16 beta electrons
       nuclear repulsion energy       116.9901714732 Hartrees.
 NAtoms=   12 NActive=   12 NUniq=   12 SFac= 7.50D-01 NAtFMM=   80 NAOKFM=F Big=F
 One-electron integrals computed using PRISM.
 NBasis=   120 RedAO= T  NBF=   120
 NBsUse=   120 1.00D-06 NBFU=   120
 Initial guess read from the read-write file:
 Initial guess orbital symmetries:
       Occupied  (A) (A) (A) (A) (A) (A) (A) (A) (A) (A) (A) (A)
                 (A) (A) (A) (A)
       Virtual   (A) (A) (A) (A) (A) (A) (A) (A) (A) (A) (A) (A)
                 (A) (A) (A) (A) (A) (A) (A) (A) (A) (A) (A) (A)
                 (A) (A) (A) (A) (A) (A) (A) (A) (A) (A) (A) (A)
                 (A) (A) (A) (A) (A) (A) (A) (A) (A) (A) (A) (A)
                 (A) (A) (A) (A) (A) (A) (A) (A) (A) (A) (A) (A)
                 (A) (A) (A) (A) (A) (A) (A) (A) (A) (A) (A) (A)
                 (A) (A) (A) (A) (A) (A) (A) (A) (A) (A) (A) (A)
                 (A) (A) (A) (A) (A) (A) (A) (A) (A) (A) (A) (A)
                 (A) (A) (A) (A) (A) (A) (A) (A)
 Harris functional with IExCor=  402 diagonalized for initial guess.
 ExpMin= 1.03D-01 ExpMax= 4.56D+03 ExpMxC= 6.82D+02 IAcc=1 IRadAn=         1 AccDes= 1.00D-06
 HarFok:  IExCor= 402 AccDes= 1.00D-06 IRadAn=         1 IDoV=1
 ScaDFX=  1.000000  1.000000  1.000000  1.000000
 Requested convergence on RMS density matrix=1.00D-08 within 128 cycles.
 Requested convergence on MAX density matrix=1.00D-06.
 Requested convergence on             energy=1.00D-06.
 No special actions if energy rises.
 Keep R1 integrals in memory in canonical form, NReq=    32005229.
 Integral accuracy reduced to 1.0D-05 until final iterations.
 Initial convergence to 1.0D-05 achieved.  Increase integral accuracy.
 SCF Done:  E(RB+HF-LYP) =  -157.268083651     A.U. after   10 cycles
             Convg  =    0.4158D-08             -V/T =  2.0051
             S**2   =   0.0000
 ***** Axes restored to original set *****
 -------------------------------------------------------------------
 Center     Atomic                   Forces (Hartrees/Bohr)
 Number     Number              X              Y              Z
 -------------------------------------------------------------------
    1          6           0.000032540   -0.000002982    0.000013551
    2          1           0.000004394    0.000000382    0.000003437
    3          1           0.000010928   -0.000000922   -0.000014622
    4          6          -0.000034670   -0.000000819   -0.000023419
    5          1          -0.000004822    0.000001248   -0.000011537
    6          6          -0.000000535   -0.000007929   -0.000002266
    7          1           0.000005120    0.000001441    0.000012332
    8          1          -0.000007783    0.000009636   -0.000000603
    9          6           0.000005429    0.000008623    0.000008342
   10          1           0.000004558   -0.000008536    0.000007377
   11          1          -0.000010318    0.000001065    0.000012973
   12          1          -0.000004841   -0.000001209   -0.000005564
 -------------------------------------------------------------------
 Cartesian Forces:  Max     0.000034670 RMS     0.000011281

 GradGradGradGradGradGradGradGradGradGradGradGradGradGradGradGradGradGrad
 Berny optimization.
 Internal  Forces:  Max     0.000049354 RMS     0.000008555
 Search for a local minimum.
 Step number   2 out of a maximum of  58
 All quantities printed in internal units (Hartrees-Bohrs-Radians)
 Update second derivatives using D2CorX and points  1  2
 Trust test= 9.91D-01 RLast= 3.53D-02 DXMaxT set to 3.00D-01
     Eigenvalues ---    0.00225   0.00250   0.01886   0.03115   0.03839
     Eigenvalues ---    0.04032   0.04318   0.04552   0.04581   0.07710
     Eigenvalues ---    0.10322   0.10602   0.11268   0.12044   0.12764
     Eigenvalues ---    0.13544   0.15589   0.16847   0.19700   0.28057
     Eigenvalues ---    0.30204   0.31832   0.32589   0.32765   0.33047
     Eigenvalues ---    0.33763   0.34010   0.34798   0.35225   0.61795
     Eigenvalues --- 1000.000001000.000001000.000001000.000001000.00000
     Eigenvalues --- 1000.000001000.000001000.000001000.000001000.00000
     Eigenvalues --- 1000.000001000.000001000.000001000.000001000.00000
     Eigenvalues --- 1000.000001000.000001000.00000
 RFO step:  Lambda= 0.00000000D+00.
 Quartic linear search produced a step of -0.00663.
 Iteration  1 RMS(Cart)=  0.00028205 RMS(Int)=  0.00000003
 Iteration  2 RMS(Cart)=  0.00000005 RMS(Int)=  0.00000000
 Variable       Old X    -DE/DX   Delta X   Delta X   Delta X     New X
                                 (Linear)    (Quad)   (Total)
    R1        2.05269   0.00001   0.00003   0.00000   0.00003   2.05272
    R2        2.04900   0.00001   0.00003   0.00000   0.00003   2.04903
    R3        2.51266   0.00005   0.00005   0.00003   0.00008   2.51274
    R4        2.05958   0.00001   0.00003  -0.00001   0.00002   2.05960
    R5        2.84038   0.00001   0.00002   0.00000   0.00002   2.84041
    R6        2.06881   0.00001   0.00003   0.00000   0.00003   2.06884
    R7        2.07436   0.00001   0.00003   0.00000   0.00003   2.07439
    R8        2.90532   0.00000   0.00001   0.00000   0.00001   2.90533
    R9        2.06570   0.00001   0.00003   0.00000   0.00003   2.06573
   R10        2.06606   0.00001   0.00003   0.00000   0.00004   2.06610
   R11        2.06773   0.00001   0.00003   0.00000   0.00003   2.06776
    A1        2.03693   0.00000  -0.00003   0.00004   0.00001   2.03694
    A2        2.12121   0.00000   0.00001  -0.00003  -0.00002   2.12119
    A3        2.12505   0.00000   0.00002  -0.00001   0.00001   2.12505
    A4        2.07499   0.00000   0.00001  -0.00001   0.00000   2.07499
    A5        2.18911   0.00000   0.00000  -0.00001  -0.00002   2.18909
    A6        2.01902   0.00000  -0.00001   0.00002   0.00002   2.01903
    A7        1.91131   0.00000   0.00000  -0.00001   0.00000   1.91130
    A8        1.90309   0.00000   0.00003   0.00000   0.00002   1.90311
    A9        1.96932   0.00000  -0.00001  -0.00001  -0.00002   1.96931
   A10        1.86055   0.00000  -0.00001   0.00002   0.00001   1.86056
   A11        1.91860   0.00000   0.00000  -0.00001  -0.00001   1.91859
   A12        1.89768   0.00000  -0.00001   0.00001   0.00000   1.89768
   A13        1.93566   0.00000   0.00000  -0.00001  -0.00001   1.93566
   A14        1.93790   0.00000   0.00000   0.00000   0.00000   1.93791
   A15        1.94054   0.00000   0.00000   0.00001   0.00001   1.94055
   A16        1.88752   0.00000   0.00000   0.00000   0.00000   1.88752
   A17        1.87972   0.00000   0.00000   0.00000  -0.00001   1.87971
   A18        1.88013   0.00000   0.00000   0.00000   0.00000   1.88013
    D1       -3.13859   0.00000   0.00000  -0.00002  -0.00003  -3.13862
    D2       -0.01000   0.00000   0.00000  -0.00006  -0.00007  -0.01007
    D3        0.00613   0.00000   0.00000  -0.00001  -0.00001   0.00612
    D4        3.13473   0.00000   0.00000  -0.00005  -0.00006   3.13467
    D5        0.06046   0.00000  -0.00008   0.00060   0.00052   0.06098
    D6        2.09012   0.00000  -0.00008   0.00062   0.00054   2.09066
    D7       -2.08259   0.00000  -0.00008   0.00062   0.00055  -2.08204
    D8       -3.09376   0.00000  -0.00009   0.00056   0.00047  -3.09328
    D9       -1.06410   0.00000  -0.00008   0.00058   0.00050  -1.06360
   D10        1.04638   0.00000  -0.00008   0.00058   0.00050   1.04688
   D11        1.07408   0.00000  -0.00001   0.00009   0.00007   1.07415
   D12       -3.11000   0.00000  -0.00001   0.00008   0.00007  -3.10992
   D13       -1.01696   0.00000  -0.00001   0.00009   0.00008  -1.01687
   D14       -1.06490   0.00000  -0.00001   0.00011   0.00010  -1.06480
   D15        1.03422   0.00000  -0.00001   0.00010   0.00010   1.03431
   D16        3.12726   0.00000  -0.00001   0.00011   0.00011   3.12736
   D17       -3.09555   0.00000   0.00000   0.00009   0.00010  -3.09546
   D18       -0.99644   0.00000   0.00001   0.00008   0.00009  -0.99635
   D19        1.09660   0.00000   0.00001   0.00009   0.00010   1.09670
         Item               Value     Threshold  Converged?
 Maximum Force            0.000049     0.000450     YES
 RMS     Force            0.000009     0.000300     YES
 Maximum Displacement     0.001027     0.001800     YES
 RMS     Displacement     0.000282     0.001200     YES
 Predicted change in Energy=-5.470353D-09
 Optimization completed.
    -- Stationary point found.
                           ----------------------------
                           !   Optimized Parameters   !
                           ! (Angstroms and Degrees)  !
 --------------------------                            --------------------------
 ! Name  Definition              Value          Derivative Info.                !
 --------------------------------------------------------------------------------
 ! R1    R(1,2)                  1.0862         -DE/DX =    0.0                 !
 ! R2    R(1,3)                  1.0843         -DE/DX =    0.0                 !
 ! R3    R(1,4)                  1.3296         -DE/DX =    0.0                 !
 ! R4    R(4,5)                  1.0899         -DE/DX =    0.0                 !
 ! R5    R(4,6)                  1.5031         -DE/DX =    0.0                 !
 ! R6    R(6,7)                  1.0948         -DE/DX =    0.0                 !
 ! R7    R(6,8)                  1.0977         -DE/DX =    0.0                 !
 ! R8    R(6,9)                  1.5374         -DE/DX =    0.0                 !
 ! R9    R(9,10)                 1.0931         -DE/DX =    0.0                 !
 ! R10   R(9,11)                 1.0933         -DE/DX =    0.0                 !
 ! R11   R(9,12)                 1.0942         -DE/DX =    0.0                 !
 ! A1    A(2,1,3)              116.7074         -DE/DX =    0.0                 !
 ! A2    A(2,1,4)              121.5362         -DE/DX =    0.0                 !
 ! A3    A(3,1,4)              121.7562         -DE/DX =    0.0                 !
 ! A4    A(1,4,5)              118.8881         -DE/DX =    0.0                 !
 ! A5    A(1,4,6)              125.4268         -DE/DX =    0.0                 !
 ! A6    A(5,4,6)              115.6813         -DE/DX =    0.0                 !
 ! A7    A(4,6,7)              109.5098         -DE/DX =    0.0                 !
 ! A8    A(4,6,8)              109.039          -DE/DX =    0.0                 !
 ! A9    A(4,6,9)              112.834          -DE/DX =    0.0                 !
 ! A10   A(7,6,8)              106.6016         -DE/DX =    0.0                 !
 ! A11   A(7,6,9)              109.9277         -DE/DX =    0.0                 !
 ! A12   A(8,6,9)              108.7292         -DE/DX =    0.0                 !
 ! A13   A(6,9,10)             110.9054         -DE/DX =    0.0                 !
 ! A14   A(6,9,11)             111.0337         -DE/DX =    0.0                 !
 ! A15   A(6,9,12)             111.1848         -DE/DX =    0.0                 !
 ! A16   A(10,9,11)            108.1466         -DE/DX =    0.0                 !
 ! A17   A(10,9,12)            107.6999         -DE/DX =    0.0                 !
 ! A18   A(11,9,12)            107.7233         -DE/DX =    0.0                 !
 ! D1    D(2,1,4,5)           -179.8281         -DE/DX =    0.0                 !
 ! D2    D(2,1,4,6)             -0.5729         -DE/DX =    0.0                 !
 ! D3    D(3,1,4,5)              0.3514         -DE/DX =    0.0                 !
 ! D4    D(3,1,4,6)            179.6066         -DE/DX =    0.0                 !
 ! D5    D(1,4,6,7)              3.4643         -DE/DX =    0.0                 !
 ! D6    D(1,4,6,8)            119.7552         -DE/DX =    0.0                 !
 ! D7    D(1,4,6,9)           -119.3234         -DE/DX =    0.0                 !
 ! D8    D(5,4,6,7)           -177.2593         -DE/DX =    0.0                 !
 ! D9    D(5,4,6,8)            -60.9684         -DE/DX =    0.0                 !
 ! D10   D(5,4,6,9)             59.953          -DE/DX =    0.0                 !
 ! D11   D(4,6,9,10)            61.54           -DE/DX =    0.0                 !
 ! D12   D(4,6,9,11)          -178.1897         -DE/DX =    0.0                 !
 ! D13   D(4,6,9,12)           -58.2673         -DE/DX =    0.0                 !
 ! D14   D(7,6,9,10)           -61.0141         -DE/DX =    0.0                 !
 ! D15   D(7,6,9,11)            59.2562         -DE/DX =    0.0                 !
 ! D16   D(7,6,9,12)           179.1786         -DE/DX =    0.0                 !
 ! D17   D(8,6,9,10)          -177.3622         -DE/DX =    0.0                 !
 ! D18   D(8,6,9,11)           -57.0919         -DE/DX =    0.0                 !
 ! D19   D(8,6,9,12)            62.8305         -DE/DX =    0.0                 !
 --------------------------------------------------------------------------------
 GradGradGradGradGradGradGradGradGradGradGradGradGradGradGradGradGradGrad

                          Input orientation:                          
 ---------------------------------------------------------------------
 Center     Atomic     Atomic              Coordinates (Angstroms)
 Number     Number      Type              X           Y           Z
 ---------------------------------------------------------------------
    1          6             0       -0.004176   -0.003930   -0.000835
    2          1             0       -0.006153   -0.013746    1.085355
    3          1             0        0.965313   -0.001145   -0.486380
    4          6             0       -1.136163    0.007629   -0.698274
    5          1             0       -1.083843    0.014371   -1.786879
    6          6             0       -2.520439   -0.003495   -0.112733
    7          1             0       -2.455867    0.039733    0.979274
    8          1             0       -3.051426    0.902766   -0.431632
    9          6             0       -3.339535   -1.232055   -0.540997
   10          1             0       -2.864986   -2.155642   -0.199382
   11          1             0       -4.349977   -1.194404   -0.125155
   12          1             0       -3.429393   -1.287326   -1.630093
 ---------------------------------------------------------------------
                    Distance matrix (angstroms):
                    1          2          3          4          5
     1  C    0.000000
     2  H    1.086236   0.000000
     3  H    1.084284   1.847771   0.000000
     4  C    1.329642   2.111565   2.112150   0.000000
     5  H    2.087095   3.067887   2.427051   1.089883   0.000000
     6  C    2.518750   2.785167   3.505722   1.503065   2.206104
     7  H    2.640702   2.452592   3.722135   2.134670   3.087830
     8  H    3.208336   3.523483   4.117554   2.130869   2.548986
     9  C    3.595092   3.903938   4.477705   2.533062   2.862508
    10  H    3.585180   3.796207   4.404023   2.813799   3.225147
    11  H    4.507624   4.661340   5.459548   3.478786   3.858769
    12  H    4.004210   4.551289   4.719723   2.793583   2.687118
                    6          7          8          9         10
     6  C    0.000000
     7  H    1.094768   0.000000
     8  H    1.097704   1.757889   0.000000
     9  C    1.537429   2.170147   2.156949   0.000000
    10  H    2.181274   2.525129   3.072875   1.093119   0.000000
    11  H    2.183032   2.516051   2.485616   1.093314   1.770505
    12  H    2.185590   3.085067   2.525009   1.094194   1.766200
                   11         12
    11  H    0.000000
    12  H    1.766621   0.000000
 Stoichiometry    C4H8
 Framework group  C1[X(C4H8)]
 Deg. of freedom    30
 Full point group                 C1
 Largest Abelian subgroup         C1      NOp   1
 Largest concise Abelian subgroup C1      NOp   1
                         Standard orientation:                         
 ---------------------------------------------------------------------
 Center     Atomic     Atomic              Coordinates (Angstroms)
 Number     Number      Type              X           Y           Z
 ---------------------------------------------------------------------
    1          6             0       -1.857741    0.017148   -0.280852
    2          1             0       -1.951598    0.924060   -0.871285
    3          1             0       -2.734037   -0.618678   -0.221665
    4          6             0       -0.724160   -0.293932    0.340573
    5          1             0       -0.676902   -1.216312    0.919215
    6          6             0        0.539011    0.520037    0.308032
    7          1             0        0.365408    1.442036   -0.256146
    8          1             0        0.796670    0.822329    1.331352
    9          6             0        1.727617   -0.246891   -0.294236
   10          1             0        1.526682   -0.525233   -1.332051
   11          1             0        2.636822    0.359975   -0.274373
   12          1             0        1.928593   -1.166353    0.263848
 ---------------------------------------------------------------------
 Rotational constants (GHZ):     22.6883812      4.1289297      4.0366323

 **********************************************************************

            Population analysis using the SCF density.

 **********************************************************************

 Orbital symmetries:
       Occupied  (A) (A) (A) (A) (A) (A) (A) (A) (A) (A) (A) (A)
                 (A) (A) (A) (A)
       Virtual   (A) (A) (A) (A) (A) (A) (A) (A) (A) (A) (A) (A)
                 (A) (A) (A) (A) (A) (A) (A) (A) (A) (A) (A) (A)
                 (A) (A) (A) (A) (A) (A) (A) (A) (A) (A) (A) (A)
                 (A) (A) (A) (A) (A) (A) (A) (A) (A) (A) (A) (A)
                 (A) (A) (A) (A) (A) (A) (A) (A) (A) (A) (A) (A)
                 (A) (A) (A) (A) (A) (A) (A) (A) (A) (A) (A) (A)
                 (A) (A) (A) (A) (A) (A) (A) (A) (A) (A) (A) (A)
                 (A) (A) (A) (A) (A) (A) (A) (A) (A) (A) (A) (A)
                 (A) (A) (A) (A) (A) (A) (A) (A)
 The electronic state is 1-A.
 Alpha  occ. eigenvalues --  -10.17201 -10.17104 -10.16163 -10.15850  -0.80067
 Alpha  occ. eigenvalues --   -0.72932  -0.62885  -0.55393  -0.47207  -0.44355
 Alpha  occ. eigenvalues --   -0.42632  -0.38450  -0.37537  -0.34532  -0.33612
 Alpha  occ. eigenvalues --   -0.26019
 Alpha virt. eigenvalues --    0.01101   0.05246   0.07082   0.07768   0.09385
 Alpha virt. eigenvalues --    0.12112   0.12735   0.13213   0.14732   0.20362
 Alpha virt. eigenvalues --    0.24761   0.29375   0.30352   0.32070   0.33005
 Alpha virt. eigenvalues --    0.34339   0.36877   0.40225   0.44555   0.46276
 Alpha virt. eigenvalues --    0.53259   0.54398   0.56663   0.57438   0.57857
 Alpha virt. eigenvalues --    0.59535   0.60771   0.61290   0.62327   0.62710
 Alpha virt. eigenvalues --    0.68043   0.69853   0.79202   0.81849   0.88568
 Alpha virt. eigenvalues --    0.92744   0.96701   1.06513   1.12537   1.13856
 Alpha virt. eigenvalues --    1.24209   1.28875   1.38016   1.40962   1.42549
 Alpha virt. eigenvalues --    1.46419   1.46983   1.49825   1.52367   1.52689
 Alpha virt. eigenvalues --    1.57205   1.58484   1.61841   1.66515   1.68607
 Alpha virt. eigenvalues --    1.68855   1.74968   1.75881   1.78086   1.84415
 Alpha virt. eigenvalues --    1.87413   1.96890   1.98879   2.00869   2.08848
 Alpha virt. eigenvalues --    2.10639   2.13677   2.15838   2.17116   2.23643
 Alpha virt. eigenvalues --    2.28522   2.34569   2.37916   2.40318   2.42990
 Alpha virt. eigenvalues --    2.49253   2.50025   2.53308   2.56157   2.57319
 Alpha virt. eigenvalues --    2.57512   2.59893   2.64936   2.68370   2.69025
 Alpha virt. eigenvalues --    2.77812   2.80859   2.81153   2.90777   3.04365
 Alpha virt. eigenvalues --    3.06169   3.28794   3.47639   3.71875   3.79462
 Alpha virt. eigenvalues --    3.79681   3.83468   3.96250   4.17809   4.32918
 Alpha virt. eigenvalues --   23.70573  23.85535  23.93438  24.28095
          Condensed to atoms (all electrons):
              1          2          3          4          5          6
     1  C    4.834730   0.410955   0.406935   0.651385  -0.037438  -0.063523
     2  H    0.410955   0.574176  -0.043168  -0.041686   0.008648  -0.012492
     3  H    0.406935  -0.043168   0.570394  -0.032237  -0.012292   0.007599
     4  C    0.651385  -0.041686  -0.032237   4.920254   0.405838   0.375192
     5  H   -0.037438   0.008648  -0.012292   0.405838   0.584502  -0.049533
     6  C   -0.063523  -0.012492   0.007599   0.375192  -0.049533   4.887859
     7  H   -0.003921   0.005719   0.000024  -0.045463   0.007658   0.410345
     8  H    0.000850   0.000335  -0.000511  -0.037380  -0.003549   0.401959
     9  C   -0.000080   0.000258  -0.000398  -0.069739  -0.001800   0.360179
    10  H    0.002606   0.000226  -0.000131  -0.000200  -0.000270  -0.038545
    11  H   -0.000212  -0.000068   0.000031   0.008214  -0.000325  -0.030058
    12  H    0.000221   0.000030   0.000011  -0.005705   0.004120  -0.036476
              7          8          9         10         11         12
     1  C   -0.003921   0.000850  -0.000080   0.002606  -0.000212   0.000221
     2  H    0.005719   0.000335   0.000258   0.000226  -0.000068   0.000030
     3  H    0.000024  -0.000511  -0.000398  -0.000131   0.000031   0.000011
     4  C   -0.045463  -0.037380  -0.069739  -0.000200   0.008214  -0.005705
     5  H    0.007658  -0.003549  -0.001800  -0.000270  -0.000325   0.004120
     6  C    0.410345   0.401959   0.360179  -0.038545  -0.030058  -0.036476
     7  H    0.592320  -0.034756  -0.035058  -0.007425  -0.005170   0.008569
     8  H   -0.034756   0.601446  -0.043451   0.009704  -0.005425  -0.006718
     9  C   -0.035058  -0.043451   4.886799   0.400140   0.397826   0.403589
    10  H   -0.007425   0.009704   0.400140   0.582655  -0.027763  -0.031989
    11  H   -0.005170  -0.005425   0.397826  -0.027763   0.585423  -0.029455
    12  H    0.008569  -0.006718   0.403589  -0.031989  -0.029455   0.589936
 Mulliken atomic charges:
              1
     1  C   -0.202508
     2  H    0.097068
     3  H    0.103745
     4  C   -0.128472
     5  H    0.094442
     6  C   -0.212506
     7  H    0.107158
     8  H    0.117496
     9  C   -0.298265
    10  H    0.110991
    11  H    0.106983
    12  H    0.103868
 Sum of Mulliken charges=   0.00000
 Atomic charges with hydrogens summed into heavy atoms:
              1
     1  C   -0.001695
     2  H    0.000000
     3  H    0.000000
     4  C   -0.034030
     5  H    0.000000
     6  C    0.012148
     7  H    0.000000
     8  H    0.000000
     9  C    0.023577
    10  H    0.000000
    11  H    0.000000
    12  H    0.000000
 Sum of Mulliken charges=   0.00000
 Electronic spatial extent (au):  <R**2>=   368.7647
 Charge=     0.0000 electrons
 Dipole moment (field-independent basis, Debye):
    X=     0.3366    Y=     0.0384    Z=     0.1053  Tot=     0.3548
 Quadrupole moment (field-independent basis, Debye-Ang):
   XX=   -26.7786   YY=   -26.5833   ZZ=   -27.4857
   XY=     0.5281   XZ=     0.7929   YZ=    -1.2160
 Traceless Quadrupole moment (field-independent basis, Debye-Ang):
   XX=     0.1706   YY=     0.3659   ZZ=    -0.5365
   XY=     0.5281   XZ=     0.7929   YZ=    -1.2160
 Octapole moment (field-independent basis, Debye-Ang**2):
  XXX=    -2.0473  YYY=     0.0884  ZZZ=     0.4950  XYY=    -0.2574
  XXY=    -0.7505  XXZ=    -1.3821  XZZ=     1.5587  YZZ=     0.2558
  YYZ=     0.4176  XYZ=     1.3927
 Hexadecapole moment (field-independent basis, Debye-Ang**3):
 XXXX=  -369.2697 YYYY=   -75.7420 ZZZZ=   -66.5613 XXXY=     8.9062
 XXXZ=     5.3295 YYYX=     0.0535 YYYZ=    -3.6169 ZZZX=     0.6222
 ZZZY=    -0.3570 XXYY=   -73.8894 XXZZ=   -77.3319 YYZZ=   -23.0367
 XXYZ=    -2.7665 YYXZ=     0.9567 ZZXY=    -0.6435
 N-N= 1.169901714732D+02 E-N=-5.977677759192D+02  KE= 1.564715007614D+02
 Final structure in terms of initial Z-matrix:
 C
 H,1,B1
 H,1,B2,2,A1
 C,1,B3,3,A2,2,D1,0
 H,4,B4,1,A3,3,D2,0
 C,4,B5,1,A4,3,D3,0
 H,6,B6,4,A5,1,D4,0
 H,6,B7,4,A6,1,D5,0
 C,6,B8,4,A7,1,D6,0
 H,9,B9,6,A8,4,D7,0
 H,9,B10,6,A9,4,D8,0
 H,9,B11,6,A10,4,D9,0
      Variables:
 B1=1.08623621
 B2=1.08428387
 B3=1.32964161
 B4=1.08988315
 B5=1.50306477
 B6=1.09476808
 B7=1.09770365
 B8=1.53742944
 B9=1.09311944
 B10=1.0933138
 B11=1.09419379
 A1=116.70738353
 A2=121.75616153
 A3=118.8881235
 A4=125.42675737
 A5=109.50979519
 A6=109.03902186
 A7=112.83397949
 A8=110.90535952
 A9=111.03373264
 A10=111.18483881
 D1=179.82871513
 D2=0.35141665
 D3=179.60662272
 D4=3.46428687
 D5=119.7551506
 D6=-119.32336199
 D7=61.53997106
 D8=-178.18970694
 D9=-58.26729714
 1\1\GINC-NODE39\FOpt\RB3LYP\CBSB7\C4H8\MRHARPER\20-Nov-2009\0\\# opt=c
 alcfc cbs-qb3\\1-butene geom\\0,1\C,-0.0041760646,-0.0039298855,-0.000
 835466\H,-0.0061531841,-0.0137462598,1.0853545853\H,0.9653133857,-0.00
 11450217,-0.4863804753\C,-1.1361625184,0.0076289273,-0.6982735452\H,-1
 .0838426139,0.0143706756,-1.7868792847\C,-2.5204393251,-0.0034949474,-
 0.112733047\H,-2.4558665838,0.0397328119,0.9792737621\H,-3.0514264736,
 0.9027661807,-0.431632264\C,-3.3395352724,-1.2320554991,-0.5409970704\
 H,-2.8649857415,-2.155641869,-0.1993816834\H,-4.349977285,-1.194404127
 9,-0.1251552976\H,-3.429393028,-1.2873262482,-1.630093383\\Version=AM6
 4L-G03RevD.01\State=1-A\HF=-157.2680837\RMSD=4.158e-09\RMSF=1.128e-05\
 Thermal=0.\Dipole=-0.1378906,0.0010839,-0.0216134\PG=C01 [X(C4H8)]\\@


 TO DRY ONE'S EYES AND LAUGH AT A FALL,
 AND BAFFLED, GET UP AND BEGIN AGAIN.
           R. BROWNING
 Job cpu time:  0 days  0 hours 12 minutes 45.3 seconds.
 File lengths (MBytes):  RWF=     29 Int=      0 D2E=      0 Chk=     11 Scr=      1
 Normal termination of Gaussian 03 at Fri Nov 20 15:42:33 2009.
 Link1:  Proceeding to internal job step number  2.
 -------------------------------------------------------
 #N Geom=AllCheck Guess=Read SCRF=Check B3LYP/CBSB7 Freq
 -------------------------------------------------------
 1/10=4,29=7,30=1,38=1,40=1,46=1/1,3;
 2/40=1/2;
 3/5=4,6=6,7=700,11=2,16=1,25=1,30=1,70=2,71=2,74=-5/1,2,3;
 4/5=1/1;
 5/5=2,38=6/2;
 8/6=4,10=90,11=11/1;
 11/6=1,8=1,9=11,15=111,16=1/1,2,10;
 10/6=1/2;
 6/7=2,8=2,9=2,10=2,18=1,28=1/1;
 7/8=1,10=1,25=1/1,2,3,16;
 1/10=4,30=1,46=1/3;
 99//99;
 -------------
 1-butene geom
 -------------
 Redundant internal coordinates taken from checkpoint file:
 Butene_1-geom.chk
 Charge =  0 Multiplicity = 1
 C,0,-0.0041760646,-0.0039298855,-0.000835466
 H,0,-0.0061531841,-0.0137462598,1.0853545853
 H,0,0.9653133857,-0.0011450217,-0.4863804753
 C,0,-1.1361625184,0.0076289273,-0.6982735452
 H,0,-1.0838426139,0.0143706756,-1.7868792847
 C,0,-2.5204393251,-0.0034949474,-0.112733047
 H,0,-2.4558665838,0.0397328119,0.9792737621
 H,0,-3.0514264736,0.9027661807,-0.431632264
 C,0,-3.3395352724,-1.2320554991,-0.5409970704
 H,0,-2.8649857415,-2.155641869,-0.1993816834
 H,0,-4.349977285,-1.1944041279,-0.1251552976
 H,0,-3.429393028,-1.2873262482,-1.630093383
 Recover connectivity data from disk.

 GradGradGradGradGradGradGradGradGradGradGradGradGradGradGradGradGradGrad
 Berny optimization.
 Initialization pass.
                           ----------------------------
                           !    Initial Parameters    !
                           ! (Angstroms and Degrees)  !
 --------------------------                            --------------------------
 ! Name  Definition              Value          Derivative Info.                !
 --------------------------------------------------------------------------------
 ! R1    R(1,2)                  1.0862         calculate D2E/DX2 analytically  !
 ! R2    R(1,3)                  1.0843         calculate D2E/DX2 analytically  !
 ! R3    R(1,4)                  1.3296         calculate D2E/DX2 analytically  !
 ! R4    R(4,5)                  1.0899         calculate D2E/DX2 analytically  !
 ! R5    R(4,6)                  1.5031         calculate D2E/DX2 analytically  !
 ! R6    R(6,7)                  1.0948         calculate D2E/DX2 analytically  !
 ! R7    R(6,8)                  1.0977         calculate D2E/DX2 analytically  !
 ! R8    R(6,9)                  1.5374         calculate D2E/DX2 analytically  !
 ! R9    R(9,10)                 1.0931         calculate D2E/DX2 analytically  !
 ! R10   R(9,11)                 1.0933         calculate D2E/DX2 analytically  !
 ! R11   R(9,12)                 1.0942         calculate D2E/DX2 analytically  !
 ! A1    A(2,1,3)              116.7074         calculate D2E/DX2 analytically  !
 ! A2    A(2,1,4)              121.5362         calculate D2E/DX2 analytically  !
 ! A3    A(3,1,4)              121.7562         calculate D2E/DX2 analytically  !
 ! A4    A(1,4,5)              118.8881         calculate D2E/DX2 analytically  !
 ! A5    A(1,4,6)              125.4268         calculate D2E/DX2 analytically  !
 ! A6    A(5,4,6)              115.6813         calculate D2E/DX2 analytically  !
 ! A7    A(4,6,7)              109.5098         calculate D2E/DX2 analytically  !
 ! A8    A(4,6,8)              109.039          calculate D2E/DX2 analytically  !
 ! A9    A(4,6,9)              112.834          calculate D2E/DX2 analytically  !
 ! A10   A(7,6,8)              106.6016         calculate D2E/DX2 analytically  !
 ! A11   A(7,6,9)              109.9277         calculate D2E/DX2 analytically  !
 ! A12   A(8,6,9)              108.7292         calculate D2E/DX2 analytically  !
 ! A13   A(6,9,10)             110.9054         calculate D2E/DX2 analytically  !
 ! A14   A(6,9,11)             111.0337         calculate D2E/DX2 analytically  !
 ! A15   A(6,9,12)             111.1848         calculate D2E/DX2 analytically  !
 ! A16   A(10,9,11)            108.1466         calculate D2E/DX2 analytically  !
 ! A17   A(10,9,12)            107.6999         calculate D2E/DX2 analytically  !
 ! A18   A(11,9,12)            107.7233         calculate D2E/DX2 analytically  !
 ! D1    D(2,1,4,5)           -179.8281         calculate D2E/DX2 analytically  !
 ! D2    D(2,1,4,6)             -0.5729         calculate D2E/DX2 analytically  !
 ! D3    D(3,1,4,5)              0.3514         calculate D2E/DX2 analytically  !
 ! D4    D(3,1,4,6)            179.6066         calculate D2E/DX2 analytically  !
 ! D5    D(1,4,6,7)              3.4643         calculate D2E/DX2 analytically  !
 ! D6    D(1,4,6,8)            119.7552         calculate D2E/DX2 analytically  !
 ! D7    D(1,4,6,9)           -119.3234         calculate D2E/DX2 analytically  !
 ! D8    D(5,4,6,7)           -177.2593         calculate D2E/DX2 analytically  !
 ! D9    D(5,4,6,8)            -60.9684         calculate D2E/DX2 analytically  !
 ! D10   D(5,4,6,9)             59.953          calculate D2E/DX2 analytically  !
 ! D11   D(4,6,9,10)            61.54           calculate D2E/DX2 analytically  !
 ! D12   D(4,6,9,11)          -178.1897         calculate D2E/DX2 analytically  !
 ! D13   D(4,6,9,12)           -58.2673         calculate D2E/DX2 analytically  !
 ! D14   D(7,6,9,10)           -61.0141         calculate D2E/DX2 analytically  !
 ! D15   D(7,6,9,11)            59.2562         calculate D2E/DX2 analytically  !
 ! D16   D(7,6,9,12)           179.1786         calculate D2E/DX2 analytically  !
 ! D17   D(8,6,9,10)          -177.3622         calculate D2E/DX2 analytically  !
 ! D18   D(8,6,9,11)           -57.0919         calculate D2E/DX2 analytically  !
 ! D19   D(8,6,9,12)            62.8305         calculate D2E/DX2 analytically  !
 --------------------------------------------------------------------------------
 Trust Radius=3.00D-01 FncErr=1.00D-07 GrdErr=1.00D-07
 Number of steps in this run=   2 maximum allowed number of steps=   2.
 GradGradGradGradGradGradGradGradGradGradGradGradGradGradGradGradGradGrad

                          Input orientation:                          
 ---------------------------------------------------------------------
 Center     Atomic     Atomic              Coordinates (Angstroms)
 Number     Number      Type              X           Y           Z
 ---------------------------------------------------------------------
    1          6             0       -0.004176   -0.003930   -0.000835
    2          1             0       -0.006153   -0.013746    1.085355
    3          1             0        0.965313   -0.001145   -0.486380
    4          6             0       -1.136163    0.007629   -0.698274
    5          1             0       -1.083843    0.014371   -1.786879
    6          6             0       -2.520439   -0.003495   -0.112733
    7          1             0       -2.455867    0.039733    0.979274
    8          1             0       -3.051426    0.902766   -0.431632
    9          6             0       -3.339535   -1.232055   -0.540997
   10          1             0       -2.864986   -2.155642   -0.199382
   11          1             0       -4.349977   -1.194404   -0.125155
   12          1             0       -3.429393   -1.287326   -1.630093
 ---------------------------------------------------------------------
                    Distance matrix (angstroms):
                    1          2          3          4          5
     1  C    0.000000
     2  H    1.086236   0.000000
     3  H    1.084284   1.847771   0.000000
     4  C    1.329642   2.111565   2.112150   0.000000
     5  H    2.087095   3.067887   2.427051   1.089883   0.000000
     6  C    2.518750   2.785167   3.505722   1.503065   2.206104
     7  H    2.640702   2.452592   3.722135   2.134670   3.087830
     8  H    3.208336   3.523483   4.117554   2.130869   2.548986
     9  C    3.595092   3.903938   4.477705   2.533062   2.862508
    10  H    3.585180   3.796207   4.404023   2.813799   3.225147
    11  H    4.507624   4.661340   5.459548   3.478786   3.858769
    12  H    4.004210   4.551289   4.719723   2.793583   2.687118
                    6          7          8          9         10
     6  C    0.000000
     7  H    1.094768   0.000000
     8  H    1.097704   1.757889   0.000000
     9  C    1.537429   2.170147   2.156949   0.000000
    10  H    2.181274   2.525129   3.072875   1.093119   0.000000
    11  H    2.183032   2.516051   2.485616   1.093314   1.770505
    12  H    2.185590   3.085067   2.525009   1.094194   1.766200
                   11         12
    11  H    0.000000
    12  H    1.766621   0.000000
 Stoichiometry    C4H8
 Framework group  C1[X(C4H8)]
 Deg. of freedom    30
 Full point group                 C1
 Largest Abelian subgroup         C1      NOp   1
 Largest concise Abelian subgroup C1      NOp   1
                         Standard orientation:                         
 ---------------------------------------------------------------------
 Center     Atomic     Atomic              Coordinates (Angstroms)
 Number     Number      Type              X           Y           Z
 ---------------------------------------------------------------------
    1          6             0       -1.857741    0.017148   -0.280852
    2          1             0       -1.951598    0.924060   -0.871285
    3          1             0       -2.734037   -0.618678   -0.221665
    4          6             0       -0.724160   -0.293932    0.340573
    5          1             0       -0.676902   -1.216312    0.919215
    6          6             0        0.539011    0.520037    0.308032
    7          1             0        0.365408    1.442036   -0.256146
    8          1             0        0.796670    0.822329    1.331352
    9          6             0        1.727617   -0.246891   -0.294236
   10          1             0        1.526682   -0.525233   -1.332051
   11          1             0        2.636822    0.359975   -0.274373
   12          1             0        1.928593   -1.166353    0.263848
 ---------------------------------------------------------------------
 Rotational constants (GHZ):     22.6883812      4.1289297      4.0366323
 Standard basis: CBSB7 (5D, 7F)
 There are   120 symmetry adapted basis functions of A   symmetry.
 Integral buffers will be    131072 words long.
 Raffenetti 2 integral format.
 Two-electron integral symmetry is turned on.
   120 basis functions,   192 primitive gaussians,   124 cartesian basis functions
    16 alpha electrons       16 beta electrons
       nuclear repulsion energy       116.9901714732 Hartrees.
 NAtoms=   12 NActive=   12 NUniq=   12 SFac= 7.50D-01 NAtFMM=   80 NAOKFM=F Big=F
 One-electron integrals computed using PRISM.
 NBasis=   120 RedAO= T  NBF=   120
 NBsUse=   120 1.00D-06 NBFU=   120
 Initial guess read from the checkpoint file:
 Butene_1-geom.chk
 Initial guess orbital symmetries:
       Occupied  (A) (A) (A) (A) (A) (A) (A) (A) (A) (A) (A) (A)
                 (A) (A) (A) (A)
       Virtual   (A) (A) (A) (A) (A) (A) (A) (A) (A) (A) (A) (A)
                 (A) (A) (A) (A) (A) (A) (A) (A) (A) (A) (A) (A)
                 (A) (A) (A) (A) (A) (A) (A) (A) (A) (A) (A) (A)
                 (A) (A) (A) (A) (A) (A) (A) (A) (A) (A) (A) (A)
                 (A) (A) (A) (A) (A) (A) (A) (A) (A) (A) (A) (A)
                 (A) (A) (A) (A) (A) (A) (A) (A) (A) (A) (A) (A)
                 (A) (A) (A) (A) (A) (A) (A) (A) (A) (A) (A) (A)
                 (A) (A) (A) (A) (A) (A) (A) (A) (A) (A) (A) (A)
                 (A) (A) (A) (A) (A) (A) (A) (A)
 Requested convergence on RMS density matrix=1.00D-08 within 128 cycles.
 Requested convergence on MAX density matrix=1.00D-06.
 Requested convergence on             energy=1.00D-06.
 No special actions if energy rises.
 Keep R1 integrals in memory in canonical form, NReq=    32005229.
 SCF Done:  E(RB+HF-LYP) =  -157.268083651     A.U. after    1 cycles
             Convg  =    0.1824D-08             -V/T =  2.0051
             S**2   =   0.0000
 Range of M.O.s used for correlation:     1   120
 NBasis=   120 NAE=    16 NBE=    16 NFC=     0 NFV=     0
 NROrb=    120 NOA=    16 NOB=    16 NVA=   104 NVB=   104
 Symmetrizing basis deriv contribution to polar:
 IMax=3 JMax=2 DiffMx= 0.00D+00
 G2DrvN: will do   13 centers at a time, making    1 passes doing MaxLOS=2.
 FoFDir/FoFCou used for L=0 through L=2.
 DoAtom=TTTTTTTTTTTT
          Differentiating once with respect to electric field.
                with respect to dipole field.
          Differentiating once with respect to nuclear coordinates.
          Store integrals in memory, NReq=    30858744.
          There are  39 degrees of freedom in the 1st order CPHF.
    36 vectors were produced by pass  0.
 AX will form  36 AO Fock derivatives at one time.
    36 vectors were produced by pass  1.
    36 vectors were produced by pass  2.
    36 vectors were produced by pass  3.
    36 vectors were produced by pass  4.
    14 vectors were produced by pass  5.
     3 vectors were produced by pass  6.
 Inv2:  IOpt= 1 Iter= 1 AM= 2.07D-15 Conv= 1.00D-12.
 Inverted reduced A of dimension  197 with in-core refinement.
 Isotropic polarizability for W=    0.000000       46.84 Bohr**3.
 End of Minotr Frequency-dependent properties file   721 does not exist.

 **********************************************************************

            Population analysis using the SCF density.

 **********************************************************************

 Orbital symmetries:
       Occupied  (A) (A) (A) (A) (A) (A) (A) (A) (A) (A) (A) (A)
                 (A) (A) (A) (A)
       Virtual   (A) (A) (A) (A) (A) (A) (A) (A) (A) (A) (A) (A)
                 (A) (A) (A) (A) (A) (A) (A) (A) (A) (A) (A) (A)
                 (A) (A) (A) (A) (A) (A) (A) (A) (A) (A) (A) (A)
                 (A) (A) (A) (A) (A) (A) (A) (A) (A) (A) (A) (A)
                 (A) (A) (A) (A) (A) (A) (A) (A) (A) (A) (A) (A)
                 (A) (A) (A) (A) (A) (A) (A) (A) (A) (A) (A) (A)
                 (A) (A) (A) (A) (A) (A) (A) (A) (A) (A) (A) (A)
                 (A) (A) (A) (A) (A) (A) (A) (A) (A) (A) (A) (A)
                 (A) (A) (A) (A) (A) (A) (A) (A)
 The electronic state is 1-A.
 Alpha  occ. eigenvalues --  -10.17201 -10.17104 -10.16163 -10.15850  -0.80067
 Alpha  occ. eigenvalues --   -0.72932  -0.62885  -0.55393  -0.47207  -0.44355
 Alpha  occ. eigenvalues --   -0.42632  -0.38450  -0.37537  -0.34532  -0.33612
 Alpha  occ. eigenvalues --   -0.26019
 Alpha virt. eigenvalues --    0.01101   0.05246   0.07082   0.07768   0.09385
 Alpha virt. eigenvalues --    0.12112   0.12735   0.13213   0.14732   0.20362
 Alpha virt. eigenvalues --    0.24761   0.29375   0.30352   0.32070   0.33005
 Alpha virt. eigenvalues --    0.34339   0.36877   0.40225   0.44555   0.46276
 Alpha virt. eigenvalues --    0.53259   0.54398   0.56663   0.57438   0.57858
 Alpha virt. eigenvalues --    0.59535   0.60771   0.61290   0.62327   0.62710
 Alpha virt. eigenvalues --    0.68043   0.69853   0.79202   0.81849   0.88568
 Alpha virt. eigenvalues --    0.92744   0.96701   1.06513   1.12537   1.13856
 Alpha virt. eigenvalues --    1.24209   1.28875   1.38016   1.40962   1.42549
 Alpha virt. eigenvalues --    1.46419   1.46983   1.49825   1.52367   1.52689
 Alpha virt. eigenvalues --    1.57205   1.58484   1.61841   1.66515   1.68607
 Alpha virt. eigenvalues --    1.68855   1.74968   1.75881   1.78086   1.84415
 Alpha virt. eigenvalues --    1.87413   1.96890   1.98879   2.00869   2.08848
 Alpha virt. eigenvalues --    2.10639   2.13677   2.15838   2.17116   2.23643
 Alpha virt. eigenvalues --    2.28522   2.34569   2.37916   2.40318   2.42990
 Alpha virt. eigenvalues --    2.49253   2.50025   2.53308   2.56157   2.57319
 Alpha virt. eigenvalues --    2.57512   2.59893   2.64936   2.68370   2.69025
 Alpha virt. eigenvalues --    2.77812   2.80859   2.81153   2.90777   3.04365
 Alpha virt. eigenvalues --    3.06169   3.28794   3.47639   3.71875   3.79462
 Alpha virt. eigenvalues --    3.79681   3.83468   3.96250   4.17809   4.32918
 Alpha virt. eigenvalues --   23.70573  23.85535  23.93438  24.28095
          Condensed to atoms (all electrons):
              1          2          3          4          5          6
     1  C    4.834730   0.410955   0.406935   0.651385  -0.037438  -0.063523
     2  H    0.410955   0.574176  -0.043168  -0.041686   0.008648  -0.012492
     3  H    0.406935  -0.043168   0.570394  -0.032237  -0.012292   0.007599
     4  C    0.651385  -0.041686  -0.032237   4.920253   0.405838   0.375192
[...]
                 (A) (A) (A) (A) (A) (A) (A) (A) (A) (A) (A) (A)
                 (A) (A) (A) (A) (A) (A) (A) (A) (A) (A) (A) (A)
                 (A) (A) (A) (A) (A) (A) (A) (A) (A) (A) (A) (A)
                 (A) (A) (A) (A) (A) (A) (A) (A) (A) (A) (A) (A)
                 (A) (A) (A) (A) (A) (A) (A) (A) (A) (A) (A) (A)
                 (A) (A) (A) (A) (A) (A) (A) (A) (A) (A) (A) (A)
                 (A) (A) (A) (A) (A) (A) (A) (A) (A) (A) (A) (A)
                 (A) (A) (A) (A) (A) (A) (A) (A) (A) (A) (A) (A)
                 (A) (A) (A) (A) (A) (A) (A) (A)
 The electronic state is 1-A.
 Alpha  occ. eigenvalues --  -11.23030 -11.22561 -11.21690 -11.21521  -1.07877
 Alpha  occ. eigenvalues --   -0.98834  -0.85600  -0.75437  -0.64189  -0.60585
 Alpha  occ. eigenvalues --   -0.58443  -0.53540  -0.51679  -0.48675  -0.47481
 Alpha  occ. eigenvalues --   -0.35963
 Alpha virt. eigenvalues --    0.04292   0.05514   0.05834   0.06296   0.07607
 Alpha virt. eigenvalues --    0.08543   0.08981   0.10509   0.11674   0.13967
 Alpha virt. eigenvalues --    0.15308   0.15699   0.17014   0.18658   0.18823
 Alpha virt. eigenvalues --    0.19737   0.20404   0.20486   0.20749   0.21765
 Alpha virt. eigenvalues --    0.22786   0.23318   0.23524   0.25890   0.26984
 Alpha virt. eigenvalues --    0.29887   0.30753   0.31593   0.34875   0.37141
 Alpha virt. eigenvalues --    0.37912   0.39348   0.42214   0.44584   0.48185
 Alpha virt. eigenvalues --    0.53084   0.55768   0.56758   0.57852   0.60984
 Alpha virt. eigenvalues --    0.63325   0.68854   0.69456   0.70202   0.70739
 Alpha virt. eigenvalues --    0.72177   0.73145   0.74289   0.74359   0.77064
 Alpha virt. eigenvalues --    0.79194   0.79798   0.80500   0.82555   0.83571
 Alpha virt. eigenvalues --    0.84608   0.86584   0.88518   0.89577   0.93093
 Alpha virt. eigenvalues --    0.94918   0.95502   0.99630   1.00582   1.03867
 Alpha virt. eigenvalues --    1.07185   1.10688   1.12074   1.14827   1.19842
 Alpha virt. eigenvalues --    1.21782   1.24751   1.28153   1.31574   1.33245
 Alpha virt. eigenvalues --    1.34343   1.35342   1.37919   1.39312   1.42075
 Alpha virt. eigenvalues --    1.44215   1.45568   1.49716   1.52409   1.53575
 Alpha virt. eigenvalues --    1.55072   1.58697   1.63496   1.64288   1.66943
 Alpha virt. eigenvalues --    1.68554   1.69421   1.72305   1.73936   1.75897
 Alpha virt. eigenvalues --    1.76765   1.77702   1.78061   1.83353   1.86899
 Alpha virt. eigenvalues --    1.88964   1.90399   2.02651   2.17928   2.71928
 Alpha virt. eigenvalues --    2.76316   2.80684   2.83711   2.87136   2.93363
 Alpha virt. eigenvalues --    2.96430   3.00775   3.02025   3.08480   3.10297
 Alpha virt. eigenvalues --    3.11236   3.13162   3.15753   3.18785   3.21672
 Alpha virt. eigenvalues --    3.23252   3.25811   3.27108   3.33483   3.34969
 Alpha virt. eigenvalues --    3.36768   3.41862   3.44024   3.47321   3.48040
 Alpha virt. eigenvalues --    3.50384   3.52981   3.54466   3.56273   3.58448
 Alpha virt. eigenvalues --    3.63578   3.65462   3.66872   3.67703   3.70817
 Alpha virt. eigenvalues --    3.73287   3.75259   3.79775   3.80846   3.83996
 Alpha virt. eigenvalues --    3.90850   3.91793   3.96057   4.02492   4.03277
 Alpha virt. eigenvalues --    4.04706   4.09413   4.16101   4.17520   4.18799
 Alpha virt. eigenvalues --    4.22011   4.24753   4.28662   4.32641   4.35512
 Alpha virt. eigenvalues --    4.37447   4.39667   4.41449   4.45986   4.50667
 Alpha virt. eigenvalues --    4.53698   4.57122   4.60294   4.62610   4.63384
 Alpha virt. eigenvalues --    4.65348   4.68138   4.71897   4.75545   4.77676
 Alpha virt. eigenvalues --    4.84077   4.89573   4.89756   4.94256   4.95762
 Alpha virt. eigenvalues --    4.97586   5.06320   5.09185   5.17511   5.21868
 Alpha virt. eigenvalues --    5.36051   5.57765   5.67083   5.85331   5.90053
 Alpha virt. eigenvalues --    5.96833   6.06793   6.10533   6.13787   6.17642
 Alpha virt. eigenvalues --    6.46251  25.19021  25.42102  25.53745  25.96730
          Condensed to atoms (all electrons):
              1          2          3          4          5          6
     1  C    5.127214   0.420040   0.408018   0.595354  -0.034842  -0.082395
     2  H    0.420040   0.560167  -0.026390  -0.045710   0.003954   0.000335
     3  H    0.408018  -0.026390   0.553073  -0.012167  -0.008908   0.002916
     4  C    0.595354  -0.045710  -0.012167   4.757157   0.392486   0.272435
     5  H   -0.034842   0.003954  -0.008908   0.392486   0.560436  -0.033692
     6  C   -0.082395   0.000335   0.002916   0.272435  -0.033692   4.700319
     7  H   -0.011547   0.001942  -0.000624  -0.066585   0.004878   0.452749
     8  H    0.005736   0.001030  -0.001314  -0.046027  -0.004399   0.481636
     9  C    0.117828  -0.005037   0.001278  -0.018638  -0.016660   0.179076
    10  H    0.005023  -0.000972   0.000087  -0.016318  -0.000363  -0.025390
    11  H   -0.004461   0.000361  -0.000260   0.010498   0.000864  -0.017658
    12  H    0.000875   0.001035  -0.000200  -0.018244  -0.001298  -0.025938
              7          8          9         10         11         12
     1  C   -0.011547   0.005736   0.117828   0.005023  -0.004461   0.000875
     2  H    0.001942   0.001030  -0.005037  -0.000972   0.000361   0.001035
     3  H   -0.000624  -0.001314   0.001278   0.000087  -0.000260  -0.000200
     4  C   -0.066585  -0.046027  -0.018638  -0.016318   0.010498  -0.018244
     5  H    0.004878  -0.004399  -0.016660  -0.000363   0.000864  -0.001298
     6  C    0.452749   0.481636   0.179076  -0.025390  -0.017658  -0.025938
     7  H    0.634028  -0.044107  -0.023623  -0.003952  -0.003998   0.002215
     8  H   -0.044107   0.658659  -0.062312   0.005305  -0.002769  -0.005868
     9  C   -0.023623  -0.062312   4.860654   0.443343   0.394176   0.428818
    10  H   -0.003952   0.005305   0.443343   0.610674  -0.030591  -0.037820
    11  H   -0.003998  -0.002769   0.394176  -0.030591   0.627711  -0.031448
    12  H    0.002215  -0.005868   0.428818  -0.037820  -0.031448   0.626374
 Mulliken atomic charges:
              1
     1  C   -0.546843
     2  H    0.089245
     3  H    0.084491
     4  C    0.195757
     5  H    0.137544
     6  C    0.095607
     7  H    0.058623
     8  H    0.014432
     9  C   -0.298903
    10  H    0.050973
    11  H    0.057574
    12  H    0.061499
 Sum of Mulliken charges=   0.00000
 Atomic charges with hydrogens summed into heavy atoms:
              1
     1  C   -0.373107
     2  H    0.000000
     3  H    0.000000
     4  C    0.333301
     5  H    0.000000
     6  C    0.168663
     7  H    0.000000
     8  H    0.000000
     9  C   -0.128857
    10  H    0.000000
    11  H    0.000000
    12  H    0.000000
 Sum of Mulliken charges=   0.00000
 Electronic spatial extent (au):  <R**2>=   369.2470
 Charge=     0.0000 electrons
 Dipole moment (field-independent basis, Debye):
    X=     0.4045    Y=     0.0612    Z=     0.0947  Tot=     0.4199
 Quadrupole moment (field-independent basis, Debye-Ang):
   XX=   -26.9392   YY=   -26.7643   ZZ=   -27.7929
   XY=     0.5120   XZ=     0.9847   YZ=    -1.4510
 Traceless Quadrupole moment (field-independent basis, Debye-Ang):
   XX=     0.2263   YY=     0.4012   ZZ=    -0.6274
   XY=     0.5120   XZ=     0.9847   YZ=    -1.4510
 Octapole moment (field-independent basis, Debye-Ang**2):
  XXX=    -1.5552  YYY=     0.3155  ZZZ=     0.4608  XYY=     0.1458
  XXY=    -0.7750  XXZ=    -2.0246  XZZ=     2.2590  YZZ=     0.3546
  YYZ=     0.5033  XYZ=     1.6692
 Hexadecapole moment (field-independent basis, Debye-Ang**3):
 XXXX=  -368.8262 YYYY=   -75.6343 ZZZZ=   -67.6054 XXXY=     9.5058
 XXXZ=     7.0298 YYYX=    -0.1298 YYYZ=    -4.6113 ZZZX=     1.0587
 ZZZY=    -0.9740 XXYY=   -74.0483 XXZZ=   -78.3283 YYZZ=   -23.0986
 XXYZ=    -3.3485 YYXZ=     1.0430 ZZXY=    -0.8256
 N-N= 1.169901714732D+02 E-N=-5.967353613254D+02  KE= 1.559776420924D+02
 1\1\GINC-NODE39\SP\RMP2-FC\CBSB3\C4H8\MRHARPER\20-Nov-2009\0\\#N Geom=
 AllCheck Guess=Read SCRF=Check MP2/CBSB3 CBSExtrap=(NMin=10,MinPop)\\1
 -butene geom\\0,1\C,0,-0.0041760646,-0.0039298855,-0.000835466\H,0,-0.
 0061531841,-0.0137462598,1.0853545853\H,0,0.9653133857,-0.0011450217,-
 0.4863804753\C,0,-1.1361625184,0.0076289273,-0.6982735452\H,0,-1.08384
 26139,0.0143706756,-1.7868792847\C,0,-2.5204393251,-0.0034949474,-0.11
 2733047\H,0,-2.4558665838,0.0397328119,0.9792737621\H,0,-3.0514264736,
 0.9027661807,-0.431632264\C,0,-3.3395352724,-1.2320554991,-0.540997070
 4\H,0,-2.8649857415,-2.155641869,-0.1993816834\H,0,-4.349977285,-1.194
 4041279,-0.1251552976\H,0,-3.429393028,-1.2873262482,-1.630093383\\Ver
 sion=AM64L-G03RevD.01\State=1-A\HF=-156.1597295\MP2=-156.8301931\E2(CB
 S)=-0.7347744\CBS-Int=-0.7113678\OIii=6.0863855\RMSD=6.331e-09\Thermal
 =0.\PG=C01 [X(C4H8)]\\@


 THERE ONCE WAS A GIRL NAMED IRENE,
 WHO LIVED ON DISTILLED KEROSENE,
      BUT SHE STARTED ABSORBIN'
      A NEW HYDROCARBON,
 AND SINCE THEN HAS NEVER BENZENE.
 Diagonal vibrational polarizability:
        0.0000000       0.0000000       0.0000000

 Complete Basis Set (CBS) Extrapolation:
 M. R. Nyden and G. A. Petersson, JCP 75, 1843 (1981)
 G. A. Petersson and M. A. Al-Laham, JCP 94, 6081 (1991)
 G. A. Petersson, T. Tensfeldt, and J. A. Montgomery, JCP 94, 6091 (1991)
 J. A. Montgomery, J. W. Ochterski, and G. A. Petersson, JCP 101, 5900 (1994)

 Temperature=            298.150000 Pressure=                    1.000000
 E(ZPE)=                   0.106897 E(Thermal)=                  0.112202
 E(SCF)=                 -156.159730 DE(MP2)=                     -0.670464
 DE(CBS)=                  -0.064311 DE(MP34)=                    -0.051654
 DE(CCSD)=                 -0.020172 DE(Int)=                      0.023407
 DE(Empirical)=            -0.035240
 CBS-QB3 (0 K)=          -156.871267 CBS-QB3 Energy=            -156.865962
 CBS-QB3 Enthalpy=       -156.865018 CBS-QB3 Free Energy=       -156.898798
 1\1\GINC-NODE39\Mixed\CBS-QB3\CBS-QB3\C4H8\MRHARPER\20-Nov-2009\0\\# o
 pt=calcfc cbs-qb3\\1-butene geom\\0,1\C,0,-0.0041760646,-0.0039298855,
 -0.000835466\H,0,-0.0061531841,-0.0137462598,1.0853545853\H,0,0.965313
 3857,-0.0011450217,-0.4863804753\C,0,-1.1361625184,0.0076289273,-0.698
 2735452\H,0,-1.0838426139,0.0143706756,-1.7868792847\C,0,-2.5204393251
 ,-0.0034949474,-0.112733047\H,0,-2.4558665838,0.0397328119,0.979273762
 1\H,0,-3.0514264736,0.9027661807,-0.431632264\C,0,-3.3395352724,-1.232
 0554991,-0.5409970704\H,0,-2.8649857415,-2.155641869,-0.1993816834\H,0
 ,-4.349977285,-1.1944041279,-0.1251552976\H,0,-3.429393028,-1.28732624
 82,-1.630093383\\Version=AM64L-G03RevD.01\State=1-A\HF/CbsB3=-156.1597
 295\E2(CBS)/CbsB3=-0.7347744\CBS-Int/CbsB3=0.0234066\OIii/CbsB3=6.0863
 855\MP2/CbsB4=-156.6967872\MP4(SDQ)/CbsB4=-156.7484416\MP4(SDQ)/6-31+G
 (d')=-156.6822718\QCISD(T)/6-31+G(d')=-156.7024442\CBSQB3=-156.8712672
 \FreqCoord=-0.0078916184,-0.0074264073,-0.001578802,-0.0116278328,-0.0
 259766665,2.0510229245,1.8241779324,-0.0021637774,-0.9191258953,-2.147
 0360035,0.0144165833,-1.3195457669,-2.0481657126,0.0271566413,-3.37671
 24824,-4.7629400616,-0.0066044935,-0.213034585,-4.6409152649,0.0750841
 331,1.8505592205,-5.7663603528,1.7059808446,-0.8156667696,-6.310807079
 4,-2.328247475,-1.0223363023,-5.414038429,-4.0735727752,-0.3767767778,
 -8.2202657575,-2.2570966949,-0.2365092367,-6.4806136286,-2.4326940541,
 -3.0804300666\PG=C01 [X(C4H8)]\NImag=0\\0.79237882,-0.00262783,0.10511
 936,0.09276495,-0.00602468,0.68527031,-0.05676105,0.00000210,0.0071099
 5,0.05301357,-0.00007134,-0.03488523,0.00266238,-0.00015656,0.02337507
 ,0.00289283,0.00277623,-0.32832264,-0.00066301,-0.00298567,0.35145385,
 -0.27502596,-0.00054159,0.11236848,0.00249377,0.00001320,-0.00217988,0
 .29432722,-0.00075225,-0.03363185,0.00052271,-0.00020297,0.00189199,0.
 00008016,0.00060444,0.02336835,0.11739281,0.00059257,-0.11620770,0.024
 87403,0.00007884,-0.00903931,-0.12164812,-0.00067150,0.11427124,-0.429
 35316,0.00275649,-0.19933315,0.00330960,-0.00003536,0.00182514,-0.0210
 5409,0.00061355,-0.01830790,0.73300101,0.00267076,-0.04988385,0.002540
 21,0.00034882,0.00601734,0.00009444,-0.00016274,0.00302326,-0.00006015
 ,-0.00033627,0.15486460,-0.20128873,0.00253479,-0.23701189,-0.02803689
 ,0.00011057,-0.01643298,0.01530439,-0.00001256,0.01011656,0.14151187,-
 0.00357077,0.67911474,0.00292629,0.00027784,-0.03011284,-0.00369833,0.
 00006069,-0.00282855,0.00103340,-0.00003962,0.00015011,-0.05670449,-0.
 00014862,0.01621597,0.05941620,0.00011083,0.00645376,0.00053807,0.0001
 3177,0.01178650,0.00008609,-0.00003430,-0.00783928,-0.00010277,-0.0000
 8601,-0.04110119,0.00211409,-0.00022011,0.02594732,0.00244708,0.000182
 79,-0.01604917,-0.00266551,0.00006837,-0.00002283,-0.00034296,-0.00007
 351,0.00133339,0.01198370,0.00248361,-0.31720388,-0.01320706,-0.002306
 58,0.34125345,-0.03209538,0.00067425,0.00904018,0.00177872,0.00013028,
 0.00191901,-0.00050568,-0.00063165,-0.00149876,-0.18512376,0.00296637,
 0.04710612,-0.00022637,-0.00008197,-0.00116085,0.47655131,0.00022173,0
 .00702520,0.00015293,-0.00003816,-0.00842192,-0.00004946,0.00013624,0.
 01383886,0.00014477,0.00231001,-0.07295605,-0.00011714,-0.00073573,0.0
 0232987,-0.00030973,-0.04522085,0.48405663,-0.01507964,0.00012303,0.01
 118921,-0.00196973,0.00002343,0.00112311,-0.00368658,0.00021682,-0.001
 66912,0.05191331,-0.00058033,-0.11389050,0.02889008,-0.00065867,-0.011
 14489,0.01294487,-0.02219413,0.57811288,0.00173722,-0.00004725,0.00116
 431,-0.00016388,0.00007011,-0.00099406,0.00039282,0.00001143,-0.000294
 97,0.00007338,0.00026117,0.03313224,-0.00511057,0.00009309,0.00223539,
 -0.04917214,0.00104870,-0.01768134,0.05615540,-0.00011476,-0.00048583,
 -0.00012827,-0.00000340,0.00020719,-0.00000941,-0.00003483,-0.00019124
 ,0.00003086,0.00011660,-0.00044976,-0.00008120,-0.00019657,0.00166783,
 -0.00024557,0.00124819,-0.04844677,-0.00548628,0.00279779,0.05074183,-
 0.00174918,0.00001117,0.00157029,0.00090315,0.00001175,0.00079169,-0.0
 0006436,-0.00006168,0.00051378,0.00018344,0.00021603,-0.01572305,0.002
 24676,-0.00013792,0.00038006,-0.01497763,-0.00645829,-0.30000852,0.016
 47579,0.00847620,0.32757153,-0.00229972,-0.00030581,0.00358554,0.00006
 363,0.00141885,0.00006117,-0.00086153,-0.00253145,-0.00032261,-0.02061
 392,0.02486640,-0.01121325,0.00092326,-0.00070745,0.00046118,-0.102083
 62,0.10217438,-0.03542432,-0.00129035,0.00103205,-0.00085751,0.1177081
 1,-0.00042966,0.00003745,-0.00082019,-0.00007201,0.00005855,-0.0000222
 6,-0.00000694,-0.00033816,0.00008753,0.00063620,0.00200673,-0.00026846
 ,0.00052172,0.00027559,-0.00033091,0.09917269,-0.21061122,0.06174004,-
 0.00091494,0.00101836,0.00051763,-0.10676847,0.23457483,0.00111147,0.0
 0024232,-0.00027835,0.00015410,0.00017260,0.00020149,0.00010493,0.0005
 6365,0.00034621,0.00593479,-0.01190083,0.00490509,-0.00070071,0.000178
 04,0.00035193,-0.03376350,0.06138288,-0.07302621,-0.01576266,0.0264291
 5,-0.00948521,0.03903480,-0.06660768,0.07316558,-0.00098460,-0.0002719
 6,0.00281884,-0.00009576,-0.00110459,-0.00011629,-0.00064566,0.0024323
 5,-0.00031194,-0.02607275,-0.02705880,-0.00919171,0.00155673,0.0007828
 2,-0.00046906,-0.09944934,-0.04471837,-0.01477350,-0.00198297,-0.00282
 750,-0.00114810,0.00844667,0.01129791,0.00380218,0.53492581,0.00335316
 ,-0.00062032,-0.00008092,-0.00009466,0.00035556,0.00004483,0.00043972,
 -0.00046271,0.00006276,-0.00784405,0.00065383,0.00294016,0.00082798,0.
 00057351,-0.00028412,-0.04044881,-0.14214408,-0.02516414,-0.00081087,-
 0.00191085,-0.00075129,-0.01708136,-0.02580039,-0.00932673,-0.04820312
 ,0.49261520,0.00208978,-0.00053942,-0.00096690,0.00008951,0.00013165,0
 .00026276,0.00030208,-0.00082928,0.00043650,0.00323462,0.01159578,0.00
 608570,0.00056783,0.00040161,0.00042459,-0.01256746,-0.02245037,-0.088
 51903,-0.01831658,-0.02801813,-0.00777343,0.00532759,0.00773344,0.0026
 5926,-0.01797804,-0.02518649,0.55129057,-0.00002807,0.00035623,-0.0004
 0810,0.00001223,-0.00008807,-0.00003084,0.00004563,0.00002560,0.000004
 79,0.00210292,-0.00049397,0.00065696,-0.00003574,-0.00004533,0.0000208
 9,0.00723109,-0.01621618,0.00645149,0.00063905,0.00095521,0.00032074,-
 0.00144386,-0.00376199,-0.00084918,-0.09941104,0.09833424,-0.03697259,
 0.10500011,-0.00086487,0.00054828,-0.00015304,-0.00001030,-0.00000272,
 -0.00005585,-0.00008226,-0.00021468,-0.00005729,0.00215190,0.00114554,
 -0.00011174,-0.00012303,-0.00016538,0.00008310,0.01044194,-0.02323603,
 0.00851806,0.00030871,0.00097239,-0.00038050,-0.00362179,-0.00337027,-
 0.00193938,0.09692328,-0.22835127,0.07001468,-0.10448143,0.25135642,0.
 00013977,-0.00001323,0.00004815,0.00000564,0.00003174,-0.00004935,0.00
 001923,-0.00005828,-0.00004172,0.00026016,0.00042572,-0.00007983,-0.00
 004581,0.00009167,-0.00005576,0.00457969,-0.00916566,0.00305800,0.0007
 3653,0.00007767,0.00050687,-0.00132058,-0.00216155,0.00046896,-0.03658
 483,0.07059097,-0.07490412,0.04178076,-0.07551482,0.07678727,-0.000278
 18,-0.00030196,0.00078454,-0.00001301,-0.00017924,-0.00005244,-0.00015
 340,0.00047974,-0.00008835,-0.00067920,-0.00357556,-0.00267032,0.00012
 461,0.00015558,0.00010747,-0.01459061,0.00153148,0.00661194,0.00011726
 ,0.00030743,-0.00051394,0.00089398,-0.00012840,0.00025518,-0.26761673,
 0.01164595,0.09277303,-0.01246921,0.00047657,0.00539222,0.29119786,-0.
 00130880,0.00035322,0.00063981,0.00000493,-0.00030027,-0.00007251,-0.0
 0029405,0.00056860,-0.00016577,-0.00152883,-0.00430389,-0.00311762,0.0
 0013292,-0.00002477,0.00017839,-0.02601818,0.00024286,0.01194805,0.000
 64819,0.00101760,-0.00009680,0.00065939,0.00114310,0.00073056,0.012777
 91,-0.04752656,-0.00453208,0.02455047,-0.00044491,-0.01197158,-0.01045
 476,0.05038597,-0.00040378,0.00007547,0.00035875,0.00001975,-0.0001934
 9,0.00000043,-0.00009166,0.00025284,-0.00005920,-0.00015253,-0.0015827
 5,-0.00030770,-0.00038002,-0.00012630,0.00029863,-0.01057430,0.0000292
 8,0.00350071,-0.00003200,0.00062523,0.00039937,0.00050584,0.00057612,0
 .00011735,0.09310766,-0.00391158,-0.08604152,-0.01073395,-0.00030450,0
 .00397806,-0.10171394,0.00641668,0.08951822,-0.00021621,0.00002950,0.0
 0021729,0.00006053,-0.00005797,0.00016692,-0.00004652,-0.00000917,0.00
 005092,0.00111444,0.00066244,-0.00152663,-0.00020500,-0.00009893,0.000
 58973,-0.00231423,-0.00049324,-0.01819658,-0.00139522,-0.00328020,-0.0
 0081916,0.00055734,0.00045389,0.00067860,-0.04867036,-0.00011818,-0.01
 854979,-0.00164310,-0.00111871,-0.01496277,0.00346664,0.00083081,0.030
 44893,0.04929169,-0.00018698,-0.00003018,0.00015099,0.00009044,-0.0000
 8207,0.00011342,-0.00003689,-0.00001314,0.00006015,0.00124578,0.000983
 45,-0.00042013,-0.00035748,0.00009626,0.00055416,-0.00223225,-0.001677
 35,-0.02848587,-0.00346613,-0.00414074,-0.00134630,0.00086527,0.001005
 44,0.00007541,-0.00002993,-0.04738191,-0.00832140,0.00086522,0.0017626
 4,0.02766735,0.00004317,-0.00111095,-0.00185700,0.00319978,0.05058855,
 -0.00031734,0.00003895,0.00039995,0.00017901,-0.00011217,0.00003379,-0
 .00008555,0.00007064,-0.00000064,0.00094655,0.00033904,0.00042774,-0.0
 0079578,-0.00007734,0.00043447,-0.00104737,-0.00096507,-0.00872563,-0.
 00066264,-0.00167026,0.00125660,0.00016215,-0.00044372,0.00057391,-0.0
 1915522,-0.00893345,-0.30295438,-0.00024097,-0.00009873,-0.00971652,-0
 .00088540,0.00004287,-0.01176310,0.02190255,0.01180922,0.33003381\\-0.
 00003250,0.00000298,-0.00001352,-0.00000440,-0.00000038,-0.00000344,-0
 .00001093,0.00000092,0.00001462,0.00003464,0.00000081,0.00002339,0.000
 00482,-0.00000125,0.00001152,0.00000053,0.00000795,0.00000227,-0.00000
 512,-0.00000144,-0.00001232,0.00000778,-0.00000963,0.00000060,-0.00000
 544,-0.00000863,-0.00000833,-0.00000455,0.00000852,-0.00000737,0.00001
 031,-0.00000106,-0.00001297,0.00000484,0.00000121,0.00000554\\\@
 Job cpu time:  0 days  0 hours 10 minutes  7.7 seconds.
 File lengths (MBytes):  RWF=   4357 Int=      0 D2E=      0 Chk=     13 Scr=      1
 Normal termination of Gaussian 03 at Fri Nov 20 15:48:57 2009.
