 Entering Gaussian System, Link 0=g03
 Input=sBuOH-freq.com
 Output=sBuOH-freq.log
 Initial command:
 /opt/g03/l1.exe /scratch/mrharper/Gau-5884.inp -scrdir=/scratch/mrharper/
 Entering Link 1 = /opt/g03/l1.exe PID=      5886.
  
 Copyright (c) 1988,1990,1992,1993,1995,1998,2003,2004, Gaussian, Inc.
                  All Rights Reserved.
  
 This is the Gaussian(R) 03 program.  It is based on the
 the Gaussian(R) 98 system (copyright 1998, Gaussian, Inc.),
 the Gaussian(R) 94 system (copyright 1995, Gaussian, Inc.),
 the Gaussian 92(TM) system (copyright 1992, Gaussian, Inc.),
 the Gaussian 90(TM) system (copyright 1990, Gaussian, Inc.),
 the Gaussian 88(TM) system (copyright 1988, Gaussian, Inc.),
 the Gaussian 86(TM) system (copyright 1986, Carnegie Mellon
 University), and the Gaussian 82(TM) system (copyright 1983,
 Carnegie Mellon University). Gaussian is a federally registered
 trademark of Gaussian, Inc.
  
 This software contains proprietary and confidential information,
 including trade secrets, belonging to Gaussian, Inc.
  
 This software is provided under written license and may be
 used, copied, transmitted, or stored only in accord with that
 written license.
  
 The following legend is applicable only to US Government
 contracts under FAR:
  
                    RESTRICTED RIGHTS LEGEND
  
 Use, reproduction and disclosure by the US Government is
 subject to restrictions as set forth in subparagraphs (a)
 and (c) of the Commercial Computer Software - Restricted
 Rights clause in FAR 52.227-19.
  
 Gaussian, Inc.
 340 Quinnipiac St., Bldg. 40, Wallingford CT 06492
  
  
 ---------------------------------------------------------------
 Warning -- This program may not be used in any manner that
 competes with the business of Gaussian, Inc. or will provide
 assistance to any competitor of Gaussian, Inc.  The licensee
 of this program is prohibited from giving any competitor of
 Gaussian, Inc. access to this program.  By using this program,
 the user acknowledges that Gaussian, Inc. is engaged in the
 business of creating and licensing software in the field of
 computational chemistry and represents and warrants to the
 licensee that it is not a competitor of Gaussian, Inc. and that
 it will not use this program in any manner prohibited above.
 ---------------------------------------------------------------
  

 Cite this work as:
 Gaussian 03, Revision D.01,
 M. J. Frisch, G. W. Trucks, H. B. Schlegel, G. E. Scuseria, 
 M. A. Robb, J. R. Cheeseman, J. A. Montgomery, Jr., T. Vreven, 
 K. N. Kudin, J. C. Burant, J. M. Millam, S. S. Iyengar, J. Tomasi, 
 V. Barone, B. Mennucci, M. Cossi, G. Scalmani, N. Rega, 
 G. A. Petersson, H. Nakatsuji, M. Hada, M. Ehara, K. Toyota, 
 R. Fukuda, J. Hasegawa, M. Ishida, T. Nakajima, Y. Honda, O. Kitao, 
 H. Nakai, M. Klene, X. Li, J. E. Knox, H. P. Hratchian, J. B. Cross, 
 V. Bakken, C. Adamo, J. Jaramillo, R. Gomperts, R. E. Stratmann, 
 O. Yazyev, A. J. Austin, R. Cammi, C. Pomelli, J. W. Ochterski, 
 P. Y. Ayala, K. Morokuma, G. A. Voth, P. Salvador, J. J. Dannenberg, 
 V. G. Zakrzewski, S. Dapprich, A. D. Daniels, M. C. Strain, 
 O. Farkas, D. K. Malick, A. D. Rabuck, K. Raghavachari, 
 J. B. Foresman, J. V. Ortiz, Q. Cui, A. G. Baboul, S. Clifford, 
 J. Cioslowski, B. B. Stefanov, G. Liu, A. Liashenko, P. Piskorz, 
 I. Komaromi, R. L. Martin, D. J. Fox, T. Keith, M. A. Al-Laham, 
 C. Y. Peng, A. Nanayakkara, M. Challacombe, P. M. W. Gill, 
 B. Johnson, W. Chen, M. W. Wong, C. Gonzalez, and J. A. Pople, 
 Gaussian, Inc., Wallingford CT, 2004.
 
 ******************************************
 Gaussian 03:  AM64L-G03RevD.01 13-Oct-2005
                19-Oct-2009 
 ******************************************
 %chk=sBuOH-freq.chk
 %mem=1000mb
 %nproc=8
 Will use up to    8 processors via shared memory.
 -------------------------------------------------------
 # freq geom=connectivity b3lyp/cbsb7 nosymm iop(7/33=1)
 -------------------------------------------------------
 1/10=4,30=1,38=1,57=2/1,3;
 2/15=1,17=6,18=5,40=1/2;
 3/5=4,6=6,7=700,11=2,16=1,25=1,30=1,74=-5/1,2,3;
 4//1;
 5/5=2,38=5/2;
 8/6=4,10=90,11=11/1;
 11/6=1,8=1,9=11,15=111,16=1,31=1/1,2,10;
 10/6=1,31=1/2;
 6/7=2,8=2,9=2,10=2,18=1,28=1/1;
 7/8=1,10=1,25=1,30=1,33=1/1,2,3,16;
 1/10=4,30=1/3;
 99//99;
 ----------------
 sBuOH: frequency
 ----------------
 Symbolic Z-matrix:
 Charge =  0 Multiplicity = 1
 C
 H                    1    B1
 H                    1    B2       2    A1
 H                    1    B3       2    A2       3    D1       0
 C                    1    B4       2    A3       3    D2       0
 H                    5    B5       1    A4       2    D3       0
 H                    5    B6       1    A5       2    D4       0
 C                    5    B7       1    A6       2    D5       0
 H                    8    B8       5    A7       1    D6       0
 C                    8    B9       5    A8       1    D7       0
 H                    10   B10      8    A9       5    D8       0
 H                    10   B11      8    A10      5    D9       0
 H                    10   B12      8    A11      5    D10      0
 O                    8    B13      5    A12      1    D11      0
 H                    14   B14      8    A13      5    D12      0
       Variables:
  B1                    1.09163                  
  B2                    1.09443                  
  B3                    1.09308                  
  B4                    1.53012                  
  B5                    1.09912                  
  B6                    1.09629                  
  B7                    1.53403                  
  B8                    1.09526                  
  B9                    1.52784                  
  B10                   1.09389                  
  B11                   1.09196                  
  B12                   1.09628                  
  B13                   1.43304                  
  B14                   0.96392                  
  A1                  107.60288                  
  A2                  108.44917                  
  A3                  110.55601                  
  A4                  109.89238                  
  A5                  110.09973                  
  A6                  113.39279                  
  A7                  108.70493                  
  A8                  112.66185                  
  A9                  111.39139                  
  A10                 110.19849                  
  A11                 110.69341                  
  A12                 111.32812                  
  A13                 107.46691                  
  D1                 -116.30679                  
  D2                  121.35378                  
  D3                   65.81926                  
  D4                 -177.66656                  
  D5                  -55.52869                  
  D6                  -55.88526                  
  D7                 -176.79789                  
  D8                   60.84608                  
  D9                 -178.55982                  
  D10                 -58.98399                  
  D11                  57.93286                  
  D12                  64.89085                  
 

 GradGradGradGradGradGradGradGradGradGradGradGradGradGradGradGradGradGrad
 Berny optimization.
 Initialization pass.
                       ----------------------------
                       !    Initial Parameters    !
                       ! (Angstroms and Degrees)  !
 ----------------------                            ----------------------
 !      Name          Value   Derivative information (Atomic Units)     !
 ------------------------------------------------------------------------
 !       B1          1.0916   calculate D2E/DX2 analytically            !
 !       B2          1.0944   calculate D2E/DX2 analytically            !
 !       B3          1.0931   calculate D2E/DX2 analytically            !
 !       B4          1.5301   calculate D2E/DX2 analytically            !
 !       B5          1.0991   calculate D2E/DX2 analytically            !
 !       B6          1.0963   calculate D2E/DX2 analytically            !
 !       B7          1.534    calculate D2E/DX2 analytically            !
 !       B8          1.0953   calculate D2E/DX2 analytically            !
 !       B9          1.5278   calculate D2E/DX2 analytically            !
 !       B10         1.0939   calculate D2E/DX2 analytically            !
 !       B11         1.092    calculate D2E/DX2 analytically            !
 !       B12         1.0963   calculate D2E/DX2 analytically            !
 !       B13         1.433    calculate D2E/DX2 analytically            !
 !       B14         0.9639   calculate D2E/DX2 analytically            !
 !       A1        107.6029   calculate D2E/DX2 analytically            !
 !       A2        108.4492   calculate D2E/DX2 analytically            !
 !       A3        110.556    calculate D2E/DX2 analytically            !
 !       A4        109.8924   calculate D2E/DX2 analytically            !
 !       A5        110.0997   calculate D2E/DX2 analytically            !
 !       A6        113.3928   calculate D2E/DX2 analytically            !
 !       A7        108.7049   calculate D2E/DX2 analytically            !
 !       A8        112.6619   calculate D2E/DX2 analytically            !
 !       A9        111.3914   calculate D2E/DX2 analytically            !
 !       A10       110.1985   calculate D2E/DX2 analytically            !
 !       A11       110.6934   calculate D2E/DX2 analytically            !
 !       A12       111.3281   calculate D2E/DX2 analytically            !
 !       A13       107.4669   calculate D2E/DX2 analytically            !
 !       D1       -116.3068   calculate D2E/DX2 analytically            !
 !       D2        121.3538   calculate D2E/DX2 analytically            !
 !       D3         65.8193   calculate D2E/DX2 analytically            !
 !       D4       -177.6666   calculate D2E/DX2 analytically            !
 !       D5        -55.5287   calculate D2E/DX2 analytically            !
 !       D6        -55.8853   calculate D2E/DX2 analytically            !
 !       D7       -176.7979   calculate D2E/DX2 analytically            !
 !       D8         60.8461   calculate D2E/DX2 analytically            !
 !       D9       -178.5598   calculate D2E/DX2 analytically            !
 !       D10       -58.984    calculate D2E/DX2 analytically            !
 !       D11        57.9329   calculate D2E/DX2 analytically            !
 !       D12        64.8909   calculate D2E/DX2 analytically            !
 ------------------------------------------------------------------------
 Trust Radius=3.00D-01 FncErr=1.00D-07 GrdErr=1.00D-07
 Number of steps in this run=   2 maximum allowed number of steps=   2.
 GradGradGradGradGradGradGradGradGradGradGradGradGradGradGradGradGradGrad

                          Input orientation:                          
 ---------------------------------------------------------------------
 Center     Atomic     Atomic              Coordinates (Angstroms)
 Number     Number      Type              X           Y           Z
 ---------------------------------------------------------------------
    1          6             0        0.000000    0.000000    0.000000
    2          1             0        0.000000    0.000000    1.091630
    3          1             0        1.043183    0.000000   -0.330975
    4          1             0       -0.459531    0.929513   -0.345920
    5          6             0       -0.745463   -1.223483   -0.537261
    6          1             0       -1.810176   -1.158873   -0.272176
    7          1             0       -0.705281   -1.238094   -1.632717
    8          6             0       -0.196561   -2.553373   -0.004971
    9          1             0        0.872537   -2.609806   -0.236160
   10          6             0       -0.901122   -3.765895   -0.611335
   11          1             0       -0.775956   -3.798158   -1.697562
   12          1             0       -0.497772   -4.687597   -0.186893
   13          1             0       -1.976409   -3.734839   -0.400107
   14          8             0       -0.241312   -2.600065    1.426611
   15          1             0       -1.168941   -2.580511    1.687870
 ---------------------------------------------------------------------
                    Distance matrix (angstroms):
                    1          2          3          4          5
     1  C    0.000000
     2  H    1.091630   0.000000
     3  H    1.094429   1.764097   0.000000
     4  H    1.093080   1.772488   1.767023   0.000000
     5  C    1.530123   2.169312   2.176860   2.180313   0.000000
     6  H    2.166519   2.545524   3.080276   2.488179   1.099117
     7  H    2.167040   3.074470   2.506898   2.532738   1.096290
     8  C    2.560932   2.785836   2.857089   3.509401   1.534025
     9  H    2.761916   3.055394   2.617097   3.783283   2.151854
    10  C    3.920168   4.230139   4.247457   4.723591   2.548250
    11  H    4.232000   4.775741   4.427509   4.927265   2.824213
    12  H    4.717655   4.884256   4.936483   5.619491   3.490586
    13  H    4.244443   4.481126   4.803305   4.905103   2.800169
    14  O    2.975532   2.632638   3.391073   3.955681   2.450702
    15  H    3.297630   2.894989   3.953260   4.118232   2.640467
                    6          7          8          9         10
     6  H    0.000000
     7  H    1.754464   0.000000
     8  C    2.149368   2.153674   0.000000
     9  H    3.050156   2.514254   1.095265   0.000000
    10  C    2.781721   2.733378   1.527839   2.150155   0.000000
    11  H    3.172879   2.561860   2.179462   2.503079   1.093891
    12  H    3.765842   3.746003   2.163038   2.489456   1.091959
    13  H    2.584492   3.060855   2.172522   3.067421   1.096277
    14  O    2.724746   3.380787   1.433042   2.001390   2.438797
    15  H    2.504799   3.611560   1.952426   2.805420   2.600616
                   11         12         13         14         15
    11  H    0.000000
    12  H    1.774996   0.000000
    13  H    1.768753   1.771884   0.000000
    14  O    3.388470   2.650840   2.763181   0.000000
    15  H    3.619151   2.899140   2.518755   0.963915   0.000000
 Symmetry turned off by external request.
 Stoichiometry    C4H10O
 Framework group  C1[X(C4H10O)]
 Deg. of freedom    39
 Full point group                 C1
 Rotational constants (GHZ):      7.9687371      3.4164144      2.6546778
 Standard basis: CBSB7 (5D, 7F)
 Integral buffers will be    131072 words long.
 Raffenetti 2 integral format.
 Two-electron integral symmetry is turned off.
   150 basis functions,   240 primitive gaussians,   155 cartesian basis functions
    21 alpha electrons       21 beta electrons
       nuclear repulsion energy       192.9272435316 Hartrees.
 NAtoms=   15 NActive=   15 NUniq=   15 SFac= 7.50D-01 NAtFMM=   80 NAOKFM=F Big=F
 One-electron integrals computed using PRISM.
 NBasis=   150 RedAO= T  NBF=   150
 NBsUse=   150 1.00D-06 NBFU=   150
 Harris functional with IExCor=  402 diagonalized for initial guess.
 ExpMin= 1.03D-01 ExpMax= 8.59D+03 ExpMxC= 1.30D+03 IAcc=1 IRadAn=         1 AccDes= 1.00D-06
 HarFok:  IExCor= 402 AccDes= 1.00D-06 IRadAn=         1 IDoV=1
 ScaDFX=  1.000000  1.000000  1.000000  1.000000
 Requested convergence on RMS density matrix=1.00D-08 within 128 cycles.
 Requested convergence on MAX density matrix=1.00D-06.
 Requested convergence on             energy=1.00D-06.
 No special actions if energy rises.
 Keep R1 integrals in memory in canonical form, NReq=    76037799.
 Integral accuracy reduced to 1.0D-05 until final iterations.
 Initial convergence to 1.0D-05 achieved.  Increase integral accuracy.
 SCF Done:  E(RB+HF-LYP) =  -233.743048988     A.U. after   12 cycles
             Convg  =    0.6431D-08             -V/T =  2.0043
             S**2   =   0.0000
 Range of M.O.s used for correlation:     1   150
 NBasis=   150 NAE=    21 NBE=    21 NFC=     0 NFV=     0
 NROrb=    150 NOA=    21 NOB=    21 NVA=   129 NVB=   129
 Symmetrizing basis deriv contribution to polar:
 IMax=3 JMax=2 DiffMx= 0.00D+00
 G2DrvN: will do   16 centers at a time, making    1 passes doing MaxLOS=2.
 FoFDir/FoFCou used for L=0 through L=2.
 DoAtom=TTTTTTTTTTTTTTT
          Differentiating once with respect to electric field.
                with respect to dipole field.
          Differentiating once with respect to nuclear coordinates.
          Store integrals in memory, NReq=    73914613.
          There are  48 degrees of freedom in the 1st order CPHF.
    45 vectors were produced by pass  0.
 AX will form  45 AO Fock derivatives at one time.
    45 vectors were produced by pass  1.
    45 vectors were produced by pass  2.
    45 vectors were produced by pass  3.
    45 vectors were produced by pass  4.
    19 vectors were produced by pass  5.
     3 vectors were produced by pass  6.
 Inv2:  IOpt= 1 Iter= 1 AM= 1.85D-15 Conv= 1.00D-12.
 Inverted reduced A of dimension  247 with in-core refinement.
 Isotropic polarizability for W=    0.000000       51.95 Bohr**3.
 End of Minotr Frequency-dependent properties file   721 does not exist.

 **********************************************************************

            Population analysis using the SCF density.

 **********************************************************************

 Alpha  occ. eigenvalues --  -19.10929 -10.21888 -10.16768 -10.16169 -10.15500
 Alpha  occ. eigenvalues --   -1.01728  -0.78644  -0.72931  -0.63750  -0.59555
 Alpha  occ. eigenvalues --   -0.47938  -0.47112  -0.44537  -0.42286  -0.41010
 Alpha  occ. eigenvalues --   -0.37253  -0.37055  -0.34945  -0.34145  -0.31721
 Alpha  occ. eigenvalues --   -0.27165
 Alpha virt. eigenvalues --    0.03361   0.06057   0.06705   0.08459   0.10021
 Alpha virt. eigenvalues --    0.11597   0.12114   0.13104   0.13492   0.15515
 Alpha virt. eigenvalues --    0.20135   0.21163   0.21897   0.23154   0.29807
 Alpha virt. eigenvalues --    0.30500   0.31598   0.33006   0.39045   0.40098
 Alpha virt. eigenvalues --    0.40846   0.43616   0.48409   0.52753   0.54564
 Alpha virt. eigenvalues --    0.55678   0.57124   0.58230   0.58687   0.59073
 Alpha virt. eigenvalues --    0.59636   0.61166   0.61426   0.62399   0.63381
 Alpha virt. eigenvalues --    0.65554   0.72785   0.80271   0.86805   0.88699
 Alpha virt. eigenvalues --    0.91772   0.97130   0.99711   1.02379   1.10340
 Alpha virt. eigenvalues --    1.16045   1.20369   1.24296   1.29488   1.30220
 Alpha virt. eigenvalues --    1.40086   1.41009   1.44067   1.45625   1.46525
 Alpha virt. eigenvalues --    1.47131   1.48991   1.50483   1.51623   1.53326
 Alpha virt. eigenvalues --    1.55998   1.58326   1.60420   1.64132   1.65781
 Alpha virt. eigenvalues --    1.69976   1.72923   1.75265   1.76030   1.79229
 Alpha virt. eigenvalues --    1.81618   1.88362   1.90685   1.95287   1.98065
 Alpha virt. eigenvalues --    2.00146   2.05126   2.08244   2.12171   2.13761
 Alpha virt. eigenvalues --    2.16157   2.23214   2.29951   2.34004   2.34962
 Alpha virt. eigenvalues --    2.37276   2.39708   2.42789   2.45178   2.48757
 Alpha virt. eigenvalues --    2.49446   2.50797   2.51189   2.54800   2.56389
 Alpha virt. eigenvalues --    2.58235   2.60857   2.63340   2.65174   2.68662
 Alpha virt. eigenvalues --    2.73835   2.76825   2.83742   2.87745   2.94007
 Alpha virt. eigenvalues --    2.98238   3.13256   3.15909   3.20127   3.28598
 Alpha virt. eigenvalues --    3.46535   3.70831   3.76710   3.79746   3.80448
 Alpha virt. eigenvalues --    3.81370   3.83260   3.93032   4.09269   4.19708
 Alpha virt. eigenvalues --    4.31875   4.93144   5.25259   5.62591  23.75663
 Alpha virt. eigenvalues --   23.85268  23.91498  23.94438  49.89965
          Condensed to atoms (all electrons):
              1          2          3          4          5          6
     1  C    4.862945   0.400772   0.403697   0.402931   0.352432  -0.042482
     2  H    0.400772   0.574184  -0.030509  -0.028947  -0.039850  -0.006176
     3  H    0.403697  -0.030509   0.591738  -0.030687  -0.035777   0.009190
     4  H    0.402931  -0.028947  -0.030687   0.588587  -0.031339  -0.006996
     5  C    0.352432  -0.039850  -0.035777  -0.031339   5.021689   0.391332
     6  H   -0.042482  -0.006176   0.009190  -0.006996   0.391332   0.624456
     7  H   -0.033748   0.009967  -0.007953  -0.004924   0.379899  -0.032396
     8  C   -0.058699  -0.010836  -0.004885   0.007721   0.360942  -0.038146
     9  H   -0.007263  -0.001329   0.005331  -0.000164  -0.052410   0.010432
    10  C    0.008997   0.000987  -0.000144  -0.000376  -0.071760  -0.009186
    11  H   -0.000472  -0.000181   0.000024  -0.000010   0.000927   0.000195
    12  H   -0.000449  -0.000079  -0.000008   0.000028   0.010758  -0.000729
    13  H   -0.000279  -0.000096   0.000040  -0.000005  -0.010515   0.006897
    14  O   -0.005975   0.022137  -0.000735  -0.000129  -0.050362  -0.001934
    15  H   -0.000857  -0.000719   0.000054  -0.000041  -0.003514   0.006793
              7          8          9         10         11         12
     1  C   -0.033748  -0.058699  -0.007263   0.008997  -0.000472  -0.000449
     2  H    0.009967  -0.010836  -0.001329   0.000987  -0.000181  -0.000079
     3  H   -0.007953  -0.004885   0.005331  -0.000144   0.000024  -0.000008
     4  H   -0.004924   0.007721  -0.000164  -0.000376  -0.000010   0.000028
     5  C    0.379899   0.360942  -0.052410  -0.071760   0.000927   0.010758
     6  H   -0.032396  -0.038146   0.010432  -0.009186   0.000195  -0.000729
     7  H    0.618335  -0.032735  -0.002297  -0.002051   0.000557  -0.000634
     8  C   -0.032735   4.868112   0.388969   0.386606  -0.033434  -0.034789
     9  H   -0.002297   0.388969   0.620061  -0.043578  -0.002631  -0.009697
    10  C   -0.002051   0.386606  -0.043578   4.871718   0.383223   0.400762
    11  H    0.000557  -0.033434  -0.002631   0.383223   0.596061  -0.023284
    12  H   -0.000634  -0.034789  -0.009697   0.400762  -0.023284   0.568748
    13  H    0.000096  -0.034008   0.009624   0.391424  -0.027268  -0.033020
    14  O    0.005296   0.274252  -0.033692  -0.042367   0.005029   0.006710
    15  H   -0.000259  -0.057705   0.010697  -0.003866  -0.000159  -0.001272
             13         14         15
     1  C   -0.000279  -0.005975  -0.000857
     2  H   -0.000096   0.022137  -0.000719
     3  H    0.000040  -0.000735   0.000054
     4  H   -0.000005  -0.000129  -0.000041
     5  C   -0.010515  -0.050362  -0.003514
     6  H    0.006897  -0.001934   0.006793
     7  H    0.000096   0.005296  -0.000259
     8  C   -0.034008   0.274252  -0.057705
     9  H    0.009624  -0.033692   0.010697
    10  C    0.391424  -0.042367  -0.003866
    11  H   -0.027268   0.005029  -0.000159
    12  H   -0.033020   0.006710  -0.001272
    13  H    0.605047  -0.001313   0.006476
    14  O   -0.001313   7.902198   0.310164
    15  H    0.006476   0.310164   0.509647
 Mulliken atomic charges:
              1
     1  C   -0.281549
     2  H    0.110675
     3  H    0.100623
     4  H    0.104350
     5  C   -0.222452
     6  H    0.088750
     7  H    0.102847
     8  C    0.018636
     9  H    0.107948
    10  C   -0.270388
    11  H    0.101424
    12  H    0.116954
    13  H    0.086900
    14  O   -0.389279
    15  H    0.224561
 Sum of Mulliken charges=   0.00000
 Atomic charges with hydrogens summed into heavy atoms:
              1
     1  C    0.034099
     2  H    0.000000
     3  H    0.000000
     4  H    0.000000
     5  C   -0.030854
     6  H    0.000000
     7  H    0.000000
     8  C    0.126584
     9  H    0.000000
    10  C    0.034889
    11  H    0.000000
    12  H    0.000000
    13  H    0.000000
    14  O   -0.164718
    15  H    0.000000
 Sum of Mulliken charges=   0.00000
 APT atomic charges:
              1
     1  C    0.061512
     2  H    0.002300
     3  H   -0.025331
     4  H   -0.032787
     5  C    0.064318
     6  H   -0.055767
     7  H   -0.042722
     8  C    0.505391
     9  H   -0.056982
    10  C    0.011115
    11  H   -0.014290
    12  H   -0.018802
    13  H   -0.026184
    14  O   -0.608244
    15  H    0.236474
 Sum of APT charges=   0.00000
 APT Atomic charges with hydrogens summed into heavy atoms:
              1
     1  C    0.005693
     2  H    0.000000
     3  H    0.000000
     4  H    0.000000
     5  C   -0.034172
     6  H    0.000000
     7  H    0.000000
     8  C    0.448409
     9  H    0.000000
    10  C   -0.048160
    11  H    0.000000
    12  H    0.000000
    13  H    0.000000
    14  O   -0.371770
    15  H    0.000000
 Sum of APT charges=   0.00000
 Electronic spatial extent (au):  <R**2>=  1167.8176
 Charge=     0.0000 electrons
 Dipole moment (field-independent basis, Debye):
    X=    -1.2100    Y=     0.0409    Z=    -0.9907  Tot=     1.5644
 Quadrupole moment (field-independent basis, Debye-Ang):
   XX=   -31.4286   YY=   -34.4049   ZZ=   -34.6959
   XY=     2.8813   XZ=    -2.8127   YZ=     2.6027
 Traceless Quadrupole moment (field-independent basis, Debye-Ang):
   XX=     2.0812   YY=    -0.8951   ZZ=    -1.1861
   XY=     2.8813   XZ=    -2.8127   YZ=     2.6027
 Octapole moment (field-independent basis, Debye-Ang**2):
  XXX=    42.7273  YYY=   204.8304  ZZZ=    -0.4795  XYY=     8.1889
  XXY=    61.5807  XXZ=     4.6970  XZZ=    10.3980  YZZ=    70.1247
  YYZ=    -6.8004  XYZ=     7.1983
 Hexadecapole moment (field-independent basis, Debye-Ang**3):
 XXXX=  -130.3577 YYYY= -1266.8417 ZZZZ=  -161.6211 XXXY=  -115.3409
 XXXZ=   -21.6198 YYYX=  -111.3709 YYYZ=    11.4479 ZZZX=   -23.2955
 ZZZY=     0.6092 XXYY=  -219.5974 XXZZ=   -45.3307 YYZZ=  -247.0067
 XXYZ=   -13.5329 YYXZ=   -23.0919 ZZXY=   -28.8962
 N-N= 1.929272435316D+02 E-N=-9.305902111157D+02  KE= 2.327494829217D+02
  Exact polarizability:  48.952   2.190  57.106  -0.193   0.991  49.782
 Approx polarizability:  70.492   0.043  66.548  -1.445  -0.020  70.332
 Use density number 0.
 Entering OneElI...
 Calculate overlap and kinetic energy integrals
    NBasis = 155  MinDer = 2  MaxDer = 2
 Requested accuracy = 0.1000D-12
 PrsmSu:  NPrtUS=   1 ThrOK=F
 PRISM was handed   130837711 working-precision words and  2145 shell-pairs
 Entering OneElI...
 Calculate potential energy integrals
    NBasis = 155  MinDer = 2  MaxDer = 2
 Requested accuracy = 0.1000D-12
 PrsmSu:  NPrtUS=   8 ThrOK=T
 PRISM was handed    16317592 working-precision words and  2050 shell-pairs
 PRISM was handed    16317592 working-precision words and  2050 shell-pairs
 PRISM was handed    16317592 working-precision words and  2050 shell-pairs
 PRISM was handed    16317592 working-precision words and  2050 shell-pairs
 PRISM was handed    16317592 working-precision words and  2050 shell-pairs
 PRISM was handed    16317592 working-precision words and  2050 shell-pairs
 PRISM was handed    16317592 working-precision words and  2050 shell-pairs
 PRISM was handed    16317592 working-precision words and  2050 shell-pairs
 Polarizability after L701:
                1             2             3
      1  0.489522D+02
      2  0.218977D+01  0.571058D+02
      3 -0.193064D+00  0.990576D+00  0.497816D+02
 Dipole Derivatives after L701:
               1            2            3            4            5
      1 0.111447D+00-0.378022D-01-0.172308D-01 0.490312D-01-0.650147D-02
      2-0.595540D-02 0.909294D-02-0.413347D-02-0.182533D-01 0.828181D-01
      3-0.236956D-01-0.339179D-01 0.639957D-01 0.123560D-01 0.143593D-01
               6            7            8            9           10
      1-0.113216D-01-0.156052D+00 0.217662D-01 0.714808D-01 0.164623D-01
      2-0.459903D-01-0.391428D-01 0.399708D-01-0.101454D-01 0.781060D-01
      3-0.124951D+00 0.511422D-01-0.243827D-01 0.400878D-01-0.413861D-01
              11           12           13           14           15
      1 0.468581D-01-0.384611D-01 0.137937D+00 0.370540D-01-0.291812D-01
      2-0.162490D+00 0.617120D-01 0.321437D-01-0.340842D-01 0.372903D-02
      3 0.444911D-01 0.476666D-01-0.658972D-01 0.652043D-01 0.891007D-01
              16           17           18           19           20
      1-0.190174D+00-0.376928D-01 0.772146D-01 0.481342D-01-0.129071D-01
      2-0.113399D-01-0.511712D-02-0.505260D-02-0.156402D-01 0.109462D-01
      3 0.378075D-01 0.848834D-02 0.279886D-01 0.123641D-01-0.221977D-01
              21           22           23           24           25
      1-0.181031D-01 0.251858D+00 0.195098D-01 0.226783D-01-0.162789D+00
      2-0.168314D-01 0.689164D-02 0.506192D+00-0.105066D-01 0.310303D-02
      3-0.187246D+00 0.121991D-01-0.690135D-02 0.758122D+00 0.359647D-01
              26           27           28           29           30
      1-0.124708D-01 0.169877D-01 0.105005D+00-0.815662D-01-0.264227D-01
      2 0.639407D-02-0.327990D-03-0.485562D-01-0.103846D+00-0.271442D-01
      3-0.214688D-02-0.145500D-01-0.696018D-01-0.961564D-01 0.321876D-01
              31           32           33           34           35
      1 0.583255D-01-0.136126D-01 0.136121D-01 0.287326D-01 0.341782D-01
      2-0.111762D-01 0.564311D-01-0.321146D-01 0.566937D-01-0.123455D+00
      3 0.321382D-01 0.132282D-01-0.157627D+00-0.379488D-01 0.405896D-01
              36           37           38           39           40
      1-0.357215D-01-0.158004D+00 0.489928D-01 0.723898D-01-0.210473D+00
      2 0.852575D-01-0.195018D-01 0.404429D-01-0.115698D-01-0.195908D-01
      3 0.383168D-01 0.357904D-01-0.269880D-01 0.390103D-01-0.110234D-01
              41           42           43           44           45
      1-0.311600D-01-0.477317D-01 0.705597D-01 0.253540D-01-0.501895D-01
      2-0.666985D+00 0.212154D-01 0.122184D-01 0.343690D+00-0.809746D-02
      3 0.385104D-01-0.947273D+00 0.197909D-01-0.121804D-01 0.295171D+00
 Hessian after L701:
                1             2             3             4             5
      1  0.124152D+02
      2 -0.121592D+01  0.994701D+01
      3 -0.345877D+00 -0.531957D+00  0.122804D+02
      4 -0.366409D+01 -0.105105D-01  0.679584D-01  0.372515D+01
      5 -0.625558D-02 -0.371794D+01  0.189597D+00 -0.668735D-02  0.338538D+01
      6  0.258603D-01 -0.635161D-01 -0.110075D+01 -0.855212D-01 -0.154358D+00
      7 -0.130202D+01 -0.321109D-01 -0.669482D+00  0.282167D-01  0.101479D-01
      8  0.138997D+00 -0.358574D+01 -0.391952D-01 -0.653354D-02  0.654804D-01
      9 -0.671981D+00  0.109369D-01 -0.335740D+01  0.883766D-01 -0.117372D-01
     10 -0.304605D+01 -0.771976D+00  0.261450D+00  0.511183D-01  0.780642D-02
     11 -0.838409D+00 -0.166497D+01 -0.604787D+00  0.173340D-01  0.367537D-01
     12  0.268566D+00 -0.574958D+00 -0.321472D+01 -0.425027D-01  0.698586D-01
     13 -0.403144D+01  0.190458D+01  0.774510D+00  0.466808D-01 -0.246123D-01
     14  0.185597D+01 -0.186136D+01  0.141422D+01 -0.976922D-02  0.307509D-01
     15  0.797998D+00  0.149631D+01 -0.452787D+01 -0.301179D-01 -0.708234D-01
     16  0.909764D-01 -0.659523D-01 -0.322968D-01 -0.136874D-01 -0.202738D-01
     17 -0.645457D-01  0.174830D-01 -0.965937D-02 -0.153067D-01  0.829528D-03
     18 -0.546685D-01 -0.288211D-01  0.644640D-01 -0.211967D-01 -0.149598D-01
     19  0.225848D-01 -0.325455D-01 -0.307039D-01 -0.227945D-01  0.120578D-01
     20 -0.178715D-01 -0.523909D-02 -0.386554D-01  0.953986D-02 -0.116001D-01
     21 -0.846039D-02 -0.311161D-01  0.111517D+00  0.321331D-01  0.622135D-01
     22 -0.719727D-01  0.392022D-01 -0.121027D-01 -0.754886D-03 -0.812684D-02
     23 -0.247866D-01  0.383450D+00 -0.585886D-01 -0.183724D-01 -0.237167D-01
     24 -0.102388D-01 -0.854929D-01 -0.791236D-01 -0.823438D-02 -0.109166D-01
     25 -0.565593D-02 -0.328224D-02  0.179373D-02  0.661334D-03 -0.272607D-02
     26  0.120630D-01 -0.190845D-01  0.518128D-02  0.275589D-03 -0.423497D-02
     27 -0.315733D-02  0.161973D-01 -0.950013D-02  0.403255D-04 -0.793344D-04
     28 -0.112135D+00  0.108841D+00  0.169171D-01 -0.122730D-01  0.957017D-02
     29  0.103782D+00  0.297335D+00  0.626418D-01  0.948246D-02  0.287334D-01
     30  0.178944D-01  0.752347D-01 -0.129728D+00  0.400346D-02  0.210388D-01
     31 -0.101280D-01  0.211639D-02  0.107333D-02 -0.799633D-03 -0.260339D-03
     32  0.214087D-02  0.776604D-02  0.102302D-01 -0.165878D-04 -0.824399D-03
     33  0.118827D-02  0.214510D-01  0.184329D-02  0.279815D-03  0.199448D-02
     34 -0.518380D-02 -0.440937D-02  0.108892D-02 -0.873744D-03 -0.761218D-03
     35 -0.627727D-03  0.127520D-01 -0.779823D-03  0.228832D-03  0.277595D-02
     36  0.105974D-02 -0.455867D-02 -0.596754D-02  0.232713D-04 -0.431623D-03
     37  0.213183D-02  0.230914D-01 -0.580612D-04  0.493137D-03  0.358315D-02
     38  0.105661D-01  0.813520D-02  0.175396D-02  0.961543D-03  0.718309D-03
     39  0.153003D-03  0.121269D-02 -0.110861D-01  0.151491D-03  0.421908D-03
     40 -0.280311D+00  0.274656D-01 -0.264707D-02 -0.138451D+00  0.172774D-01
     41  0.344304D-01  0.176906D+00 -0.385111D+00  0.282274D-01  0.206212D+00
     42 -0.114862D-01 -0.286376D+00 -0.191822D-01 -0.413791D-02 -0.794050D-01
     43 -0.196208D-02  0.314068D-01 -0.316237D-01  0.140544D-02  0.926073D-02
     44  0.104649D-01  0.349067D-02 -0.148891D-01  0.114661D-02  0.677493D-03
     45 -0.685039D-02 -0.145506D-01 -0.286085D-02 -0.125575D-02 -0.241251D-02
                6             7             8             9            10
      6  0.104640D+01
      7  0.505681D-01  0.112223D+01
      8  0.116513D-01 -0.237419D+00  0.337200D+01
      9 -0.141869D-01  0.720482D+00  0.114773D+00  0.333802D+01
     10 -0.177652D-01 -0.288780D-01  0.700956D-01 -0.152620D-01  0.305431D+01
     11  0.501200D-01  0.561091D-01  0.371055D-01  0.184603D-03  0.822265D+00
     12 -0.195238D-01  0.517923D-02 -0.128720D-01  0.646746D-01 -0.245957D+00
     13 -0.385146D-02  0.811843D-01 -0.454788D-01 -0.485142D-01  0.338888D-01
     14  0.186043D-01  0.265924D-01  0.360967D-01 -0.178046D-01 -0.498100D-01
     15  0.103811D+00 -0.358449D-01 -0.119598D-01  0.444064D-01  0.131409D-01
     16 -0.878896D-02  0.118524D+00  0.554688D-01 -0.113148D-01 -0.540639D-02
     17 -0.119931D-01  0.432217D-01 -0.138797D-01 -0.449699D-02 -0.221496D-01
     18 -0.365969D-02 -0.642769D-02 -0.260844D-02 -0.272669D-01  0.118895D-02
     19  0.295314D-01 -0.158690D-01 -0.250938D-01 -0.238071D-01  0.628478D-02
     20  0.510945D-01 -0.206520D-01 -0.654643D-03 -0.150632D-01 -0.391877D-02
     21  0.114264D+00 -0.149221D-01 -0.199916D-01 -0.398322D-02 -0.651464D-02
     22  0.513998D-02  0.152255D-01  0.179060D-01 -0.155089D-01 -0.440343D-01
     23  0.189503D-01  0.417412D-01  0.441655D-02 -0.233178D-01 -0.273096D-01
     24  0.606812D-02 -0.164329D-01 -0.146291D-01 -0.123379D-01  0.231329D-02
     25 -0.110994D-01 -0.299761D-01 -0.832797D-02  0.421359D-02  0.376233D-02
     26  0.301118D-02  0.171699D-01  0.513581D-01 -0.685814D-02 -0.329823D-02
     27  0.428959D-02  0.311835D-02  0.138878D-02 -0.207062D-01 -0.898580D-03
     28  0.594675D-02  0.222580D-02  0.107283D-01 -0.179947D-02 -0.566287D-02
     29  0.326350D-01  0.230809D-01  0.100078D-01 -0.221067D-02 -0.448454D-02
     30  0.131593D-02 -0.149824D-03  0.153444D-02 -0.105355D-01  0.124729D-02
     31 -0.601031D-03 -0.453452D-03  0.131348D-02  0.281547D-03 -0.705961D-03
     32  0.185487D-02  0.423081D-02  0.200634D-02  0.339610D-03 -0.817092D-03
     33  0.753046D-02  0.831366D-02  0.380044D-02 -0.233685D-02 -0.230768D-02
     34 -0.203771D-02 -0.219302D-02  0.782210D-04  0.510836D-03 -0.854526D-04
     35  0.769612D-02  0.796896D-02  0.357694D-02 -0.243695D-02 -0.274687D-02
     36 -0.244969D-02 -0.237161D-02 -0.962519D-03 -0.264821D-03  0.698022D-03
     37  0.824285D-02  0.881345D-02  0.424350D-02 -0.225647D-02 -0.250672D-02
     38  0.309734D-02  0.412746D-02  0.144414D-02 -0.603930D-03  0.461414D-05
     39 -0.960167D-03 -0.932079D-03 -0.152952D-03 -0.999400D-03  0.305905D-03
     40 -0.578686D-02 -0.843971D-02  0.188341D-01 -0.163642D-01 -0.124256D-01
     41  0.271590D-01  0.513991D-01  0.157066D-01 -0.386781D-01 -0.132538D-01
     42 -0.135663D+00 -0.341380D-01 -0.273329D-01  0.985522D-03  0.723579D-02
     43  0.101625D-01  0.114029D-01  0.518862D-02 -0.705655D-02 -0.361551D-02
     44  0.399352D-02  0.439279D-02  0.107573D-02 -0.302665D-02 -0.407445D-03
     45 -0.648580D-02 -0.696003D-02 -0.344350D-02  0.193692D-02  0.112533D-02
               11            12            13            14            15
     11  0.129477D+01
     12  0.630769D+00  0.318573D+01
     13 -0.103075D-01  0.134890D-01  0.143686D+02
     14  0.708208D-01 -0.382911D-01 -0.194806D+00  0.104579D+02
     15 -0.144256D-01  0.268899D-01 -0.878940D+00  0.605807D+00  0.143653D+02
     16 -0.139209D-01 -0.279091D-02 -0.141422D+01 -0.709939D-01 -0.596199D+00
     17 -0.217558D-01  0.105182D-02 -0.199872D+00 -0.390949D+01  0.558473D-01
     18 -0.296833D-02  0.125684D-01 -0.496586D+00  0.244439D-01 -0.378538D+01
     19 -0.428459D-02 -0.118360D-02 -0.377683D+01 -0.250771D-02 -0.487888D-01
     20 -0.111329D-01 -0.126872D-01 -0.384018D-02 -0.380864D+01  0.382528D-01
     21 -0.118507D-02 -0.211772D-02 -0.868717D-01  0.145792D+00 -0.130563D+01
     22 -0.148958D-01 -0.112158D-02 -0.506706D+01 -0.151285D+01  0.689473D+00
     23  0.174424D+00 -0.261992D-01 -0.151900D+01 -0.165207D+01 -0.179739D+01
     24 -0.264043D-01 -0.412398D-01  0.674130D+00 -0.179914D+01 -0.490916D+01
     25 -0.122991D-01  0.258125D-02 -0.192793D-01  0.109268D+00 -0.782096D-01
     26  0.539759D-02 -0.962731D-03  0.143717D+00  0.655682D-01  0.481101D-01
     27  0.211581D-02 -0.234887D-02 -0.664475D-01  0.466553D-01  0.126087D+00
     28  0.219652D-03  0.108133D-02 -0.932571D-02 -0.350393D-01 -0.166041D-02
     29  0.137741D-01 -0.327659D-02  0.344872D-01  0.860697D-01  0.369778D-01
     30 -0.259492D-03 -0.629961D-02 -0.420043D-02 -0.546794D-01  0.337988D-02
     31 -0.615063D-03  0.215482D-03 -0.398562D-01 -0.166562D-03 -0.110120D-02
     32  0.370606D-02  0.417877D-04  0.107223D-01  0.512403D-01  0.532194D-01
     33  0.794760D-02 -0.185149D-02  0.116693D-01  0.842372D-01  0.131837D-01
     34 -0.249040D-02  0.514281D-03 -0.523153D-01 -0.262201D-01 -0.128451D-03
     35  0.813965D-02 -0.216984D-02 -0.177189D-01  0.207955D+00 -0.347954D-01
     36 -0.257970D-02 -0.199584D-03 -0.596638D-03 -0.338238D-01 -0.528613D-01
     37  0.807737D-02 -0.183201D-02  0.814919D-02  0.103937D-02 -0.168363D-03
     38  0.364330D-02 -0.685545D-03 -0.138255D-01 -0.259817D-01 -0.652608D-02
     39 -0.968880D-03 -0.805794D-03 -0.102035D-01 -0.193420D-01 -0.334468D-02
     40 -0.169155D-01  0.814858D-02 -0.132997D+00 -0.129660D+00  0.212441D+00
     41  0.460794D-01 -0.272077D-01 -0.743833D-01  0.232385D+00 -0.379723D+00
     42 -0.314972D-01 -0.217069D-02  0.137734D+00 -0.349794D+00 -0.546638D-01
     43  0.101330D-01 -0.438762D-02  0.484059D-02  0.389517D-01 -0.418941D-01
     44  0.324714D-02 -0.241133D-02  0.103371D-01  0.187843D-01 -0.188817D-01
     45 -0.606200D-02  0.141168D-02 -0.153217D-01 -0.268824D-01 -0.441021D-01
               16            17            18            19            20
     16  0.106979D+01
     17  0.280437D+00  0.376873D+01
     18  0.480524D+00  0.441127D-01  0.375289D+01
     19  0.181288D-01  0.837291D-02  0.108741D+00  0.381502D+01
     20 -0.135144D-02  0.859116D-01 -0.289089D-02  0.271798D-01  0.368122D+01
     21  0.949173D-01 -0.134508D-01 -0.227284D-01 -0.815514D-02  0.449849D-02
     22  0.507922D-01  0.635882D-01 -0.190994D-01  0.430362D-01  0.403708D-02
     23  0.847717D-02  0.501981D-01  0.159214D-02  0.466685D-02  0.565511D-01
     24  0.257203D-01 -0.243593D-01  0.734218D-01 -0.348616D-01  0.688447D-01
     25  0.127251D+00 -0.802391D-01  0.618183D-03 -0.677749D-03  0.200566D-02
     26 -0.749341D-01 -0.706432D-03  0.514628D-03  0.384015D-02 -0.250783D-02
     27 -0.791219D-02  0.547539D-02 -0.349873D-01 -0.456186D-02  0.410390D-02
     28  0.598656D-02 -0.971762D-03 -0.815387D-02 -0.331144D-01  0.121952D-02
     29 -0.725813D-02 -0.256110D-01  0.179677D-01  0.648269D-02  0.326481D-01
     30 -0.438922D-02  0.720192D-02 -0.536544D-02 -0.361114D-02 -0.371075D-01
     31  0.412068D-03 -0.491402D-02 -0.325866D-02 -0.827717D-02 -0.700189D-03
     32 -0.852968D-02  0.605118D-02  0.660859D-02  0.117659D-02  0.137217D-01
     33 -0.140092D-01  0.110951D-01  0.382369D-02  0.105040D-02  0.965377D-02
     34  0.357635D-02 -0.145260D-02 -0.883950D-03 -0.116912D-02 -0.101853D-02
     35 -0.876347D-02  0.609464D-03  0.173684D-02  0.183629D-03  0.141124D-02
     36  0.285340D-02 -0.141553D-02 -0.124842D-02 -0.896029D-04 -0.155004D-02
     37 -0.331196D-01  0.203681D-01  0.298133D-02  0.125217D-02  0.889301D-02
     38 -0.893894D-02  0.569643D-01  0.497005D-02  0.499459D-02  0.422660D-02
     39  0.831483D-03  0.332273D-02 -0.243243D-01 -0.305647D-02 -0.538841D-02
     40  0.163807D-01 -0.237682D-01  0.970700D-02 -0.468589D-01 -0.600620D-02
     41 -0.427622D-01 -0.197518D-01 -0.984013D-02 -0.535889D-02 -0.346050D-01
     42  0.372890D-01 -0.140264D-01 -0.371386D-01  0.210755D-01 -0.607100D-01
     43 -0.353857D-01 -0.276884D-02  0.651450D-02 -0.714489D-03  0.248394D-02
     44 -0.207044D-01  0.442456D-02 -0.398579D-01  0.835455D-03 -0.130611D-02
     45  0.355658D-01 -0.487053D-01  0.349338D-01 -0.157892D-02 -0.239550D-02
               21            22            23            24            25
     21  0.943702D+00
     22 -0.253638D-01  0.180988D+02
     23  0.175249D-01 -0.274949D+00  0.139999D+02
     24 -0.319705D-02 -0.692588D+00  0.209226D+00  0.117521D+02
     25  0.108754D-01 -0.149701D+01 -0.792050D-01 -0.714391D+00  0.951875D+00
     26  0.173648D-02 -0.153958D+00 -0.420202D+01  0.396859D-01  0.162293D+00
     27 -0.361237D-02 -0.774181D+00  0.229343D-01 -0.396661D+01  0.102216D+01
     28  0.121337D-03 -0.455091D+01  0.183086D+01  0.999999D+00 -0.357226D-02
     29 -0.622981D-01  0.182812D+01 -0.222046D+01  0.185136D+01 -0.887264D-01
     30  0.470193D-02  0.100530D+01  0.184568D+01 -0.461646D+01 -0.619358D-01
     31  0.113681D-02  0.371774D-01  0.315743D-02 -0.312664D-01 -0.288005D-02
     32 -0.881518D-02  0.283115D-02  0.405414D-01 -0.540975D-01 -0.301668D-02
     33 -0.174065D-01 -0.133996D-01  0.131916D-01  0.341666D-01  0.104155D-01
     34  0.306774D-02  0.449906D-01 -0.559428D-01  0.995987D-02 -0.898517D-02
     35 -0.978063D-02 -0.205505D-01  0.110035D+00  0.331915D-01 -0.343173D-01
     36  0.403472D-02  0.102129D-01 -0.398640D-01  0.419262D-01 -0.499713D-02
     37 -0.151134D-01  0.852280D-01  0.335648D-01  0.301937D-01  0.134055D+00
     38 -0.903078D-02 -0.448168D-01  0.387996D-01  0.164791D-01  0.605603D-01
     39  0.214832D-02 -0.186434D-01  0.189902D-02  0.470522D-01  0.800850D-02
     40  0.370381D-01 -0.723474D+01  0.698964D-01 -0.272020D+00  0.244205D+00
     41 -0.732208D-01  0.818947D-01 -0.691893D+01 -0.211813D+00 -0.216237D-01
     42  0.168440D+00 -0.306963D+00 -0.179017D+00  0.160419D+01 -0.593832D-01
     43 -0.138886D-01  0.911794D-01  0.720031D-02  0.377163D-01  0.106226D+00
     44 -0.287643D-02 -0.743086D-02  0.158852D+00  0.806575D-02 -0.363133D-03
     45  0.986797D-02  0.168843D+00 -0.661902D-02  0.691881D-01 -0.130650D+00
               26            27            28            29            30
     26  0.410731D+01
     27 -0.795071D-01  0.408118D+01
     28 -0.911197D-01 -0.700063D-01  0.128046D+02
     29  0.515028D-01 -0.369285D-01 -0.118156D+01  0.106585D+02
     30 -0.275643D-01  0.803325D-01 -0.768321D+00 -0.145626D+01  0.124860D+02
     31 -0.445255D-02 -0.664931D-02 -0.347110D+01 -0.833685D-02 -0.254630D+00
     32 -0.213984D-02 -0.550347D-02 -0.286522D-01 -0.352436D+01  0.170961D+00
     33 -0.327198D-02 -0.449418D-02 -0.302489D+00  0.262982D-01 -0.113096D+01
     34 -0.377832D-01  0.332860D-02 -0.327373D+01 -0.699629D+00  0.325117D+00
     35 -0.373355D-01 -0.104995D-02 -0.795152D+00 -0.176546D+01 -0.893684D+00
     36 -0.861212D-03  0.229088D-01  0.308247D+00 -0.743100D+00 -0.323517D+01
     37  0.481305D-01 -0.240109D-02 -0.116470D+01 -0.110012D+00 -0.494918D+00
     38 -0.150897D-01 -0.221456D-02  0.683693D-01 -0.363799D+01 -0.270260D-01
     39  0.105888D-02 -0.318059D-01 -0.389832D+00  0.352721D-02 -0.354895D+01
     40 -0.170122D-01  0.241214D-01 -0.169880D+00  0.114699D+00  0.284476D+00
     41  0.435915D-01  0.263369D-01  0.104637D+00 -0.111416D-01  0.351064D+00
     42  0.152707D-01 -0.301141D+00  0.215486D+00  0.255172D+00  0.141434D+00
     43 -0.493099D-02 -0.116554D+00 -0.646586D-02 -0.201284D-01 -0.458848D-01
     44 -0.416069D-01  0.752927D-04 -0.195504D-02  0.642318D-02  0.238640D-01
     45  0.445626D-02  0.604126D-01 -0.553734D-02  0.174908D-01 -0.336685D-01
               31            32            33            34            35
     31  0.349145D+01
     32  0.553029D-02  0.334865D+01
     33  0.216237D+00 -0.281789D+00  0.949788D+00
     34  0.464976D-01 -0.196696D-02 -0.496713D-02  0.335062D+01
     35  0.906672D-02  0.317169D-01  0.424501D-01  0.754425D+00  0.134195D+01
     36 -0.298155D-01  0.633850D-01 -0.234826D-01 -0.309008D+00  0.713602D+00
     37  0.590545D-02  0.128639D-01  0.636362D-01 -0.298277D-01  0.694620D-01
     38 -0.247820D-02  0.609471D-01  0.669338D-02  0.786087D-01  0.388555D-01
     39  0.925007D-01 -0.114765D-01 -0.605978D-02 -0.328957D-01  0.129832D-01
     40 -0.464990D-01  0.623963D-02  0.389109D-01 -0.769736D-01  0.507452D-01
     41  0.159466D-02 -0.374571D-01  0.527906D-01 -0.135261D-02  0.454201D-01
     42  0.177864D-01  0.520181D-01  0.164562D+00  0.829806D-02  0.132585D+00
     43 -0.743266D-03 -0.273644D-02 -0.145283D-01  0.564717D-02 -0.122034D-01
     44 -0.855194D-03 -0.155788D-02  0.345797D-02 -0.843052D-04 -0.240393D-02
     45 -0.190871D-02  0.302343D-02  0.116942D-01 -0.196468D-02  0.452182D-03
               36            37            38            39            40
     36  0.317457D+01
     37 -0.311092D-02  0.978386D+00
     38 -0.473741D-02 -0.186773D+00  0.349899D+01
     39  0.722819D-01  0.316143D+00 -0.388892D-01  0.349103D+01
     40  0.246773D-01  0.370570D-01  0.226498D-01  0.272453D-01  0.949169D+01
     41  0.633144D-01  0.449342D-01 -0.274955D-01  0.203593D-01 -0.987447D-01
     42  0.126349D-01  0.570447D-01  0.177195D-01 -0.246706D-01  0.146259D+01
     43  0.221788D-02 -0.313218D-01  0.599038D-02  0.102229D-01 -0.164176D+01
     44 -0.641677D-02  0.185336D-01 -0.617144D-02  0.314330D-01 -0.357004D-01
     45 -0.670879D-02  0.416166D-01  0.390001D-01  0.405020D-01 -0.183254D+01
               41            42            43            44            45
     41  0.123444D+02
     42  0.550817D+00  0.376744D+01
     43 -0.896379D-01 -0.154843D+01  0.150127D+01
     44 -0.606129D+01  0.457501D-02  0.217904D-01  0.591736D+01
     45  0.337527D-01 -0.528506D+01  0.175742D+01  0.128953D-01  0.514893D+01
 ReadGW:  IGet=0 IStart=         108 Next=        6776 LGW=        6668.
 ICntrl=12127.
 Symmetry not used in FoFDir.
 MinBra= 0 MaxBra= 2 Meth= 1.
 IRaf=       0 NMat=   1 IRICut=       1 DoRegI=T DoRafI=F ISym2E= 0 JSym2E=0.
 PrsmSu:  NPrtUS=   8 ThrOK=T
 PRISM was handed    16311269 working-precision words and  2098 shell-pairs
 PRISM was handed    16311269 working-precision words and  2098 shell-pairs
 PRISM was handed    16311269 working-precision words and  2098 shell-pairs
 PRISM was handed    16311269 working-precision words and  2098 shell-pairs
 PRISM was handed    16311269 working-precision words and  2098 shell-pairs
 PRISM was handed    16311269 working-precision words and  2098 shell-pairs
 PRISM was handed    16311269 working-precision words and  2098 shell-pairs
 PRISM was handed    16311269 working-precision words and  2098 shell-pairs
 Pruned (  75, 302) grid will be used in CalDFT.
 CkSvGd:  ISavGI=        -1 IRadAn=       4 IRASav=       4 ISavGd=        -1.
 CalDSu:  NPrtUS=   8 ThrOK=T
 IPart= 0 IRanGd=          0 ScrnBf=T ScrnGd=T RCrit=4.00D+00 DoMicB=T.
 IPart= 6 IRanGd=          0 ScrnBf=T ScrnGd=T RCrit=4.00D+00 DoMicB=T.
 IPart= 3 IRanGd=          0 ScrnBf=T ScrnGd=T RCrit=4.00D+00 DoMicB=T.
 IPart= 1 IRanGd=          0 ScrnBf=T ScrnGd=T RCrit=4.00D+00 DoMicB=T.
 IPart= 4 IRanGd=          0 ScrnBf=T ScrnGd=T RCrit=4.00D+00 DoMicB=T.
 IPart= 2 IRanGd=          0 ScrnBf=T ScrnGd=T RCrit=4.00D+00 DoMicB=T.
 CutRad = 1000.00    CtRdIn =    0.00    XCrit =  15.00   ICut = 0
 CutRad = 1000.00    CtRdIn =    0.00    XCrit =  15.00   ICut = 0
 CutRad = 1000.00    CtRdIn =    0.00    XCrit =  15.00   ICut = 0
 IPart= 5 IRanGd=          0 ScrnBf=T ScrnGd=T RCrit=4.00D+00 DoMicB=T.
 CutRad = 1000.00    CtRdIn =    0.00    XCrit =  15.00   ICut = 0
 CutRad = 1000.00    CtRdIn =    0.00    XCrit =  15.00   ICut = 0
 CutRad = 1000.00    CtRdIn =    0.00    XCrit =  15.00   ICut = 0
 IPart= 7 IRanGd=          0 ScrnBf=T ScrnGd=T RCrit=4.00D+00 DoMicB=T.
 CutRad = 1000.00    CtRdIn =    0.00    XCrit =  15.00   ICut = 0
 CutRad = 1000.00    CtRdIn =    0.00    XCrit =  15.00   ICut = 0
 IPart= 4        14057 of        16010 points in      33 batches and       80 microbatches, Max-NSigAt=      15 Max-NSgAt2=      15
 IPart= 6        12468 of        14110 points in      29 batches and       89 microbatches, Max-NSigAt=      15 Max-NSgAt2=      15
 IPart= 3        13308 of        15320 points in      31 batches and      104 microbatches, Max-NSigAt=      15 Max-NSgAt2=      15
 IPart= 5        13296 of        15030 points in      30 batches and       89 microbatches, Max-NSigAt=      15 Max-NSgAt2=      15
 IPart= 2        12764 of        14330 points in      29 batches and       88 microbatches, Max-NSigAt=      15 Max-NSgAt2=      15
 IPart= 1        12094 of        13924 points in      29 batches and       93 microbatches, Max-NSigAt=      15 Max-NSgAt2=      15
 IPart= 0        13019 of        15144 points in      30 batches and       90 microbatches, Max-NSigAt=      15 Max-NSgAt2=      15
 IPart= 7        13776 of        15706 points in      32 batches and       91 microbatches, Max-NSigAt=      15 Max-NSgAt2=      15
 Polarizability after L703:
                1             2             3
      1  0.489522D+02
      2  0.218977D+01  0.571058D+02
      3 -0.193064D+00  0.990576D+00  0.497816D+02
 Dipole Derivatives after L703:
               1            2            3            4            5
      1 0.111447D+00-0.378022D-01-0.172308D-01 0.490312D-01-0.650147D-02
      2-0.595540D-02 0.909294D-02-0.413347D-02-0.182533D-01 0.828181D-01
      3-0.236956D-01-0.339179D-01 0.639957D-01 0.123560D-01 0.143593D-01
               6            7            8            9           10
      1-0.113216D-01-0.156052D+00 0.217662D-01 0.714808D-01 0.164623D-01
      2-0.459903D-01-0.391428D-01 0.399708D-01-0.101454D-01 0.781060D-01
      3-0.124951D+00 0.511422D-01-0.243827D-01 0.400878D-01-0.413861D-01
              11           12           13           14           15
      1 0.468581D-01-0.384611D-01 0.137937D+00 0.370540D-01-0.291812D-01
      2-0.162490D+00 0.617120D-01 0.321437D-01-0.340842D-01 0.372903D-02
      3 0.444911D-01 0.476666D-01-0.658972D-01 0.652043D-01 0.891007D-01
              16           17           18           19           20
      1-0.190174D+00-0.376928D-01 0.772146D-01 0.481342D-01-0.129071D-01
      2-0.113399D-01-0.511712D-02-0.505260D-02-0.156402D-01 0.109462D-01
      3 0.378075D-01 0.848834D-02 0.279886D-01 0.123641D-01-0.221977D-01
              21           22           23           24           25
      1-0.181031D-01 0.251858D+00 0.195098D-01 0.226783D-01-0.162789D+00
      2-0.168314D-01 0.689164D-02 0.506192D+00-0.105066D-01 0.310303D-02
      3-0.187246D+00 0.121991D-01-0.690135D-02 0.758122D+00 0.359647D-01
              26           27           28           29           30
      1-0.124708D-01 0.169877D-01 0.105005D+00-0.815662D-01-0.264227D-01
      2 0.639407D-02-0.327990D-03-0.485562D-01-0.103846D+00-0.271442D-01
      3-0.214688D-02-0.145500D-01-0.696018D-01-0.961564D-01 0.321876D-01
              31           32           33           34           35
      1 0.583255D-01-0.136126D-01 0.136121D-01 0.287326D-01 0.341782D-01
      2-0.111762D-01 0.564311D-01-0.321146D-01 0.566937D-01-0.123455D+00
      3 0.321382D-01 0.132282D-01-0.157627D+00-0.379488D-01 0.405896D-01
              36           37           38           39           40
      1-0.357215D-01-0.158004D+00 0.489928D-01 0.723898D-01-0.210473D+00
      2 0.852575D-01-0.195018D-01 0.404429D-01-0.115698D-01-0.195908D-01
      3 0.383168D-01 0.357904D-01-0.269880D-01 0.390103D-01-0.110234D-01
              41           42           43           44           45
      1-0.311600D-01-0.477317D-01 0.705597D-01 0.253540D-01-0.501895D-01
      2-0.666985D+00 0.212154D-01 0.122184D-01 0.343690D+00-0.809746D-02
      3 0.385104D-01-0.947273D+00 0.197909D-01-0.121804D-01 0.295171D+00
 Hessian after L703:
                1             2             3             4             5
      1  0.536462D+00
      2 -0.418362D-01  0.505354D+00
      3 -0.157456D-01 -0.322013D-01  0.553670D+00
      4 -0.485661D-01  0.637255D-03  0.267813D-02  0.494744D-01
      5  0.609112D-03 -0.463689D-01  0.441826D-02  0.255174D-02  0.496052D-01
      6  0.263394D-02  0.137931D-02 -0.310908D+00 -0.129208D-02 -0.121491D-02
      7 -0.278200D+00  0.315988D-02  0.761818D-01  0.491767D-03  0.248693D-03
      8  0.418462D-02 -0.473704D-01 -0.762160D-03 -0.636466D-03 -0.827721D-03
      9  0.770263D-01 -0.610823D-03 -0.727321D-01  0.318604D-01 -0.135197D-02
     10 -0.952710D-01  0.956832D-01 -0.361355D-01 -0.636564D-03 -0.155026D-02
     11  0.943279D-01 -0.231573D+00  0.708909D-01 -0.734844D-03  0.464396D-03
     12 -0.360466D-01  0.716148D-01 -0.742363D-01 -0.147094D-01  0.276732D-01
     13 -0.107707D+00 -0.427258D-01 -0.205974D-01  0.512758D-04  0.676881D-03
     14 -0.430679D-01 -0.144736D+00 -0.304690D-01  0.666015D-04 -0.375943D-03
     15 -0.214952D-01 -0.308232D-01 -0.949025D-01 -0.178104D-01 -0.284301D-01
     16 -0.156776D-01 -0.408498D-04  0.407515D-02  0.334219D-03  0.262838D-03
     17 -0.274825D-01  0.671883D-04  0.737520D-02  0.836219D-03  0.101284D-02
     18 -0.120730D-01  0.378475D-03  0.298238D-02 -0.126611D-03  0.751727D-03
     19  0.975030D-04 -0.666110D-03 -0.174426D-01 -0.861440D-03 -0.297635D-02
     20  0.535998D-03 -0.145977D-02 -0.288096D-01 -0.323547D-02 -0.460409D-02
     21  0.209110D-03 -0.668596D-03 -0.105394D-01 -0.120478D-02 -0.186776D-02
     22  0.790627D-02 -0.137343D-01  0.756464D-02  0.504699D-03  0.652706D-03
     23  0.763043D-02 -0.313125D-01  0.697046D-02  0.481116D-03  0.999467D-03
     24  0.764317D-02 -0.841204D-02  0.725587D-02 -0.154339D-04 -0.262578D-02
     25  0.859307D-03 -0.965324D-03  0.420957D-04  0.605671D-05  0.245150D-04
     26  0.108590D-02  0.178526D-02 -0.381201D-03 -0.260036D-04 -0.836779D-04
     27  0.327784D-03 -0.516004D-03  0.812650D-04  0.100929D-03  0.170523D-03
     28 -0.166479D-02  0.216406D-02 -0.986999D-03 -0.692086D-05 -0.333497D-04
     29  0.283041D-02 -0.299879D-02  0.232007D-02  0.886605D-04  0.228985D-04
     30 -0.154581D-02  0.289449D-02 -0.120784D-02 -0.493345D-04  0.298593D-03
     31 -0.583609D-04  0.133289D-03 -0.872909D-04 -0.930140D-05  0.613236D-04
     32 -0.136896D-03  0.202324D-03  0.280240D-03  0.623348D-04  0.244603D-03
     33 -0.111531D-03 -0.313861D-03  0.343993D-03  0.705100D-04  0.270020D-03
     34  0.812012D-03 -0.859244D-03  0.115313D-03 -0.186455D-05  0.277776D-04
     35  0.119676D-02 -0.918670D-03  0.872661D-03 -0.119618D-04 -0.907187D-04
     36  0.941880D-04 -0.649363D-03  0.633100D-03  0.736903D-04  0.670587D-04
     37  0.462656D-03 -0.169425D-03 -0.159112D-03 -0.355331D-04  0.114214D-04
     38  0.995161D-04 -0.139709D-03 -0.867935D-04 -0.203701D-04  0.581638D-04
     39 -0.144335D-03  0.124577D-03 -0.716883D-04 -0.299429D-04 -0.630491D-04
     40  0.771726D-03 -0.705480D-03  0.252598D-03 -0.579990D-03 -0.154529D-03
     41 -0.172564D-03  0.101533D-03 -0.781031D-03  0.535127D-03  0.488609D-03
     42 -0.815542D-03 -0.242633D-02 -0.608179D-03  0.478170D-03  0.167109D-02
     43 -0.226859D-03 -0.750288D-04  0.244942D-03 -0.164710D-03 -0.412521D-03
     44  0.195416D-03 -0.632273D-03  0.363251D-03 -0.593931D-03 -0.545074D-03
     45  0.432020D-04  0.229795D-03  0.239427D-03 -0.238170D-04  0.233201D-03
                6             7             8             9            10
      6  0.338899D+00
      7  0.277391D-03  0.304607D+00
      8  0.381158D-03 -0.827161D-03  0.500508D-01
      9 -0.886652D-02 -0.831548D-01  0.302898D-02  0.743337D-01
     10  0.365032D-03 -0.127115D-01  0.260420D-01 -0.109598D-01  0.101035D+00
     11  0.361216D-03  0.333394D-03  0.246667D-03 -0.544032D-03 -0.102236D+00
     12 -0.856271D-02  0.427381D-02 -0.992372D-02  0.287375D-02  0.409393D-01
     13  0.790990D-05 -0.161017D-01 -0.266342D-01 -0.131288D-01  0.730968D-02
     14 -0.207136D-02 -0.343846D-03 -0.507967D-03  0.246319D-03 -0.161170D-01
     15 -0.113735D-01  0.457488D-02  0.894148D-02  0.350483D-02  0.675976D-02
     16 -0.406630D-03 -0.182119D-03 -0.282999D-02 -0.162089D-02  0.811202D-03
     17 -0.123832D-03 -0.290305D-02 -0.423565D-02 -0.263146D-02  0.489860D-03
     18  0.548625D-03 -0.167734D-02 -0.194634D-02  0.173197D-03  0.565736D-03
     19 -0.164989D-02  0.560766D-03  0.816280D-03 -0.190168D-03  0.438639D-03
     20 -0.151809D-02  0.209231D-03  0.119301D-02  0.841376D-03  0.829578D-03
     21  0.763056D-03 -0.494178D-03  0.163406D-03  0.625566D-03  0.190604D-03
     22 -0.506792D-03  0.169239D-03 -0.176975D-02  0.568418D-03 -0.206778D-02
     23  0.100643D-02  0.126297D-02  0.183408D-02  0.378459D-03 -0.210140D-02
     24 -0.194746D-02 -0.107973D-03  0.494954D-03  0.145259D-03 -0.197329D-02
     25  0.392767D-04  0.660700D-03  0.741338D-03  0.129555D-03  0.360957D-03
     26 -0.127951D-03 -0.897670D-03 -0.276989D-03  0.147041D-03 -0.300555D-03
     27  0.103770D-04  0.221240D-03 -0.607531D-04  0.117611D-03 -0.821040D-04
     28  0.123916D-03  0.445060D-03  0.625269D-04 -0.176360D-03  0.693900D-03
     29 -0.183143D-03 -0.141851D-03 -0.847649D-04  0.127069D-03 -0.785617D-03
     30 -0.445705D-04 -0.471270D-04 -0.180235D-03 -0.216669D-04  0.316400D-03
     31  0.174250D-05 -0.429663D-04 -0.191778D-04 -0.174018D-05  0.603627D-05
     32  0.286249D-05  0.000000D+00 -0.143274D-04 -0.235324D-04  0.203350D-04
     33  0.151365D-03 -0.297573D-04 -0.668610D-05 -0.300556D-04 -0.125036D-04
     34 -0.321036D-05  0.268742D-04  0.124571D-03  0.658691D-04 -0.165315D-03
     35 -0.116434D-03 -0.100558D-03 -0.761825D-05  0.369474D-04 -0.312314D-03
     36  0.334479D-04 -0.114655D-04 -0.273325D-04 -0.111538D-04 -0.124345D-03
     37 -0.964243D-05  0.131304D-03  0.273505D-03  0.543504D-04 -0.793371D-05
     38  0.344966D-04  0.242045D-03  0.847316D-04 -0.120867D-04  0.871874D-04
     39 -0.525990D-05  0.195281D-04 -0.103704D-04 -0.333916D-04  0.546726D-04
     40  0.380298D-03  0.146214D-03  0.443091D-03 -0.313919D-03  0.170518D-03
     41  0.228040D-02 -0.500660D-03 -0.257535D-03  0.694901D-03  0.232248D-03
     42  0.134805D-02  0.142318D-03  0.893193D-04  0.123444D-04  0.105912D-03
     43  0.387305D-04  0.000000D+00  0.288290D-04 -0.158358D-03  0.336848D-04
     44 -0.901537D-04  0.258687D-03  0.173732D-03 -0.327185D-03  0.187690D-04
     45 -0.462414D-04 -0.168321D-03 -0.181706D-03 -0.913130D-04 -0.991004D-05
               11            12            13            14            15
     11  0.253835D+00
     12 -0.770488D-01  0.765065D-01
     13  0.119692D-01  0.645500D-02  0.540934D+00
     14 -0.213393D-01 -0.120828D-01 -0.911800D-05  0.446257D+00
     15  0.912974D-02  0.368619D-02 -0.278814D-01  0.123135D-01  0.565729D+00
     16 -0.372515D-03  0.188412D-03 -0.273237D+00  0.145417D-01  0.594612D-01
     17  0.891724D-03  0.703440D-03  0.151444D-01 -0.475289D-01 -0.298925D-02
     18  0.556320D-03  0.336653D-03  0.593803D-01 -0.389358D-02 -0.645334D-01
     19  0.415657D-03  0.621112D-03 -0.489519D-01  0.129029D-02  0.132970D-01
     20  0.722675D-03  0.360986D-03  0.177836D-02 -0.478593D-01 -0.225446D-02
     21 -0.481031D-03  0.397651D-03  0.122630D-01 -0.449865D-03 -0.297246D+00
     22 -0.421974D-02 -0.181776D-02 -0.998288D-01  0.319773D-01 -0.601558D-02
     23 -0.220467D-02 -0.179387D-02  0.348140D-01 -0.149924D+00  0.178308D-01
     24 -0.356659D-02 -0.239912D-02 -0.139199D-01  0.227576D-01 -0.786146D-01
     25 -0.610150D-04 -0.120121D-03 -0.134734D-01  0.225344D-02  0.148319D-02
     26  0.353297D-03  0.156404D-03  0.291300D-01 -0.434450D-02 -0.484226D-02
     27 -0.163106D-03 -0.107588D-03 -0.111146D-01  0.131886D-02  0.393251D-02
     28  0.872284D-03  0.195554D-03  0.680456D-02  0.924585D-02  0.529593D-02
     29 -0.114403D-02 -0.571326D-03 -0.147222D-01 -0.304057D-01 -0.942380D-02
     30  0.107192D-02  0.475799D-03  0.600374D-02  0.593017D-02  0.903936D-02
     31  0.398080D-04  0.438835D-04  0.656681D-04  0.331025D-03  0.293303D-03
     32  0.552161D-04  0.133434D-04  0.398686D-03  0.351634D-03  0.132493D-03
     33 -0.571943D-04  0.246048D-04  0.937398D-04  0.782532D-03 -0.403836D-03
     34 -0.286285D-03 -0.861507D-04 -0.124375D-02 -0.173222D-02 -0.172863D-02
     35 -0.538625D-03 -0.239169D-03 -0.430827D-02 -0.285456D-02 -0.347627D-02
     36 -0.206169D-03 -0.555348D-04 -0.115013D-02 -0.158748D-02 -0.142073D-02
     37 -0.123576D-03 -0.336865D-04  0.450079D-03  0.137784D-02 -0.181872D-03
     38 -0.149793D-04  0.245834D-05 -0.110700D-02  0.198311D-02  0.206088D-03
     39  0.391594D-04 -0.160044D-05  0.168140D-03  0.809956D-03 -0.913860D-04
     40  0.632821D-05  0.153021D-03  0.230171D-02  0.816106D-03 -0.142488D-01
     41  0.258542D-03  0.126956D-02 -0.156283D-02  0.697269D-03  0.329800D-01
     42  0.112621D-03  0.101432D-02  0.236641D-02  0.640605D-02 -0.385324D-01
     43  0.694998D-04 -0.564284D-04  0.262724D-02 -0.630123D-03 -0.180338D-02
     44 -0.126932D-04 -0.134460D-03 -0.284197D-02  0.587361D-03  0.705235D-03
     45 -0.949323D-04  0.474303D-04  0.105404D-02 -0.108947D-04  0.122650D-02
               16            17            18            19            20
     16  0.301588D+00
     17 -0.158695D-01  0.563376D-01
     18 -0.644539D-01  0.425018D-02  0.653969D-01
     19 -0.160519D-02 -0.375608D-03  0.316189D-01  0.495915D-01
     20  0.238598D-03 -0.430262D-03 -0.256565D-02  0.117354D-02  0.545903D-01
     21  0.126239D-02  0.110418D-03 -0.809857D-02 -0.121316D-01  0.320288D-02
     22 -0.165260D-01  0.307538D-01 -0.118819D-01 -0.122504D-04 -0.488980D-02
     23  0.208143D-02 -0.476856D-02  0.252874D-02 -0.109126D-02  0.289030D-02
     24  0.533313D-02 -0.807143D-02  0.108284D-02 -0.119352D-01  0.264864D-01
     25  0.374467D-03  0.182241D-02 -0.141418D-02  0.690236D-04  0.283911D-03
     26  0.250448D-02 -0.465515D-02  0.188151D-02 -0.621386D-03  0.858833D-03
     27 -0.118278D-02  0.234857D-02 -0.547590D-04  0.253386D-03 -0.709112D-03
     28  0.406952D-03  0.119404D-02  0.212524D-03  0.241668D-03 -0.404055D-03
     29 -0.861832D-03  0.167552D-02 -0.699087D-03 -0.444563D-03  0.393672D-03
     30 -0.346204D-03  0.380674D-04 -0.248695D-03  0.178894D-03 -0.139013D-03
     31  0.729842D-04  0.276594D-04  0.125411D-03  0.338864D-03 -0.721634D-04
     32 -0.101237D-03 -0.488520D-04  0.000000D+00 -0.105986D-03 -0.986095D-03
     33 -0.135458D-03  0.251002D-04  0.599526D-04  0.640838D-04 -0.274706D-03
     34  0.401749D-03 -0.398596D-03 -0.166066D-03 -0.233898D-03  0.103378D-03
     35  0.436742D-04  0.271031D-03 -0.125266D-03 -0.110473D-03  0.427630D-03
     36 -0.141181D-03  0.133352D-03 -0.413927D-04 -0.383315D-04 -0.156780D-03
     37  0.949234D-03 -0.872772D-03  0.745060D-04  0.106839D-04 -0.145400D-04
     38  0.569070D-03 -0.320135D-03 -0.243172D-03 -0.378027D-05 -0.922681D-04
     39  0.164880D-03  0.937212D-04  0.197067D-03  0.167811D-03 -0.518799D-05
     40  0.268059D-02 -0.168644D-02 -0.638494D-03  0.513828D-03  0.291908D-02
     41 -0.108025D-02  0.158545D-02 -0.105749D-02  0.212627D-02 -0.561474D-02
     42 -0.830191D-03 -0.212108D-02  0.226076D-02 -0.232304D-02  0.602698D-02
     43 -0.390935D-03 -0.679804D-03  0.454141D-03 -0.197842D-03  0.544366D-03
     44  0.914387D-03  0.146227D-03  0.183714D-03  0.573486D-03 -0.298560D-04
     45 -0.136789D-02  0.859001D-03 -0.615800D-04 -0.490333D-03 -0.485991D-03
               21            22            23            24            25
     21  0.325643D+00
     22  0.264551D-02  0.624330D+00
     23 -0.271630D-02 -0.144703D-02  0.467872D+00
     24 -0.128532D-01 -0.374460D-01  0.614752D-02  0.444581D+00
     25 -0.576704D-03 -0.291394D+00  0.130420D-01  0.486857D-01  0.314431D+00
     26  0.143601D-03  0.137775D-01 -0.513957D-01 -0.305363D-02 -0.138102D-01
     27  0.371432D-03  0.379310D-01 -0.226935D-02 -0.536894D-01 -0.539435D-01
     28  0.285542D-03 -0.110072D+00 -0.431832D-01 -0.192416D-01 -0.149897D-01
     29 -0.942433D-03 -0.406943D-01 -0.149082D+00 -0.294821D-01 -0.459791D-03
     30 -0.506322D-04 -0.114088D-01 -0.228666D-01 -0.819612D-01  0.148326D-02
     31 -0.315190D-04  0.195410D-02  0.272339D-02 -0.139458D-01  0.147428D-03
     32  0.234546D-03  0.729286D-02  0.265229D-02 -0.232259D-01 -0.112363D-03
     33  0.106906D-02  0.376091D-02  0.354505D-02 -0.119653D-01 -0.613902D-03
     34 -0.127748D-03  0.598160D-02 -0.151092D-01  0.692153D-02  0.785579D-03
     35  0.215334D-04  0.111282D-01 -0.241330D-01  0.123911D-01 -0.291654D-03
     36  0.405724D-03  0.528864D-02 -0.123102D-01  0.364960D-02  0.346640D-03
     37 -0.926029D-04 -0.184368D-01  0.254975D-03  0.518031D-02  0.189103D-03
     38  0.844012D-04 -0.288647D-01  0.250260D-03  0.650655D-02 -0.234725D-02
     39  0.534791D-05 -0.136602D-01  0.131281D-03  0.113319D-02 -0.145534D-02
     40 -0.173038D-02 -0.966827D-01  0.228540D-03  0.273875D-01 -0.633566D-03
     41  0.373741D-02  0.129318D-02 -0.632575D-01  0.299990D-02 -0.163392D-03
     42 -0.108490D-02 -0.224607D-01  0.432141D-02 -0.195219D+00  0.619487D-02
     43 -0.466592D-03 -0.582611D-02  0.413339D-03 -0.256623D-02  0.260700D-02
     44 -0.572205D-03 -0.125591D-02 -0.420582D-03  0.653377D-03  0.433862D-04
     45  0.592612D-03  0.474386D-01 -0.903917D-03 -0.191988D-01 -0.280857D-03
               26            27            28            29            30
     26  0.578491D-01
     27  0.254978D-02  0.770158D-01
     28 -0.273822D-01 -0.132456D-01  0.536101D+00
     29 -0.282692D-03  0.110340D-03 -0.405507D-01  0.506872D+00
     30  0.402270D-02  0.363094D-02 -0.156967D-01 -0.378252D-01  0.557396D+00
     31  0.716451D-03  0.273664D-03 -0.501987D-01 -0.895811D-04  0.316638D-01
     32  0.938723D-03  0.638660D-03 -0.989319D-04 -0.483586D-01 -0.523865D-02
     33 -0.574261D-04  0.458590D-03  0.308773D-01 -0.690284D-02 -0.302185D+00
     34  0.331167D-03  0.769273D-03 -0.855902D-01  0.850443D-01 -0.394949D-01
     35  0.941204D-03  0.193907D-03  0.835953D-01 -0.231512D+00  0.864430D-01
     36  0.725458D-03  0.228405D-03 -0.392102D-01  0.891588D-01 -0.880122D-01
     37 -0.302229D-02 -0.168313D-02 -0.288690D+00  0.105594D-01  0.493000D-01
     38 -0.390332D-02 -0.248323D-02  0.108215D-01 -0.479495D-01 -0.259697D-02
     39 -0.213044D-02 -0.275010D-03  0.489861D-01 -0.170904D-02 -0.572914D-01
     40 -0.133987D-02  0.397554D-01  0.346704D-02 -0.264869D-03 -0.185746D-01
     41  0.162250D-02 -0.110726D-02  0.150995D-02  0.254666D-02 -0.317036D-01
     42  0.672063D-03 -0.242940D-01  0.156495D-02 -0.363804D-02 -0.410326D-01
     43 -0.145279D-03  0.161901D-02  0.305152D-02  0.492494D-03 -0.178255D-02
     44  0.593193D-03 -0.218135D-04  0.218703D-02  0.306951D-03 -0.148709D-03
     45  0.294363D-03 -0.742620D-02  0.101570D-02 -0.339395D-03  0.151362D-02
               31            32            33            34            35
     31  0.504374D-01
     32  0.710270D-03  0.481469D-01
     33 -0.336662D-01  0.709056D-02  0.329815D+00
     34  0.884444D-03 -0.466272D-02  0.165964D-02  0.897766D-01
     35 -0.142270D-02  0.204400D-02 -0.671376D-03 -0.901818D-01  0.253231D+00
     36 -0.124432D-01  0.268163D-01 -0.110849D-01  0.438485D-01 -0.953859D-01
     37 -0.289829D-02  0.260955D-03  0.682298D-03 -0.113287D-01  0.217081D-03
     38  0.779494D-03 -0.114424D-02  0.714530D-04  0.264116D-01 -0.344494D-03
     39  0.320644D-01 -0.146175D-02 -0.516499D-02 -0.129862D-01 -0.386870D-03
     40 -0.330063D-03 -0.302815D-02 -0.210819D-02  0.370746D-04  0.394139D-03
     41 -0.338243D-02 -0.396588D-02 -0.408663D-02  0.878893D-03  0.401696D-02
     42 -0.387474D-02 -0.575525D-02 -0.176805D-02  0.144670D-02  0.534787D-03
     43 -0.369311D-03 -0.499050D-03 -0.530933D-03 -0.142285D-03  0.164552D-03
     44 -0.536659D-03 -0.117671D-03  0.586009D-03  0.308312D-03 -0.531585D-03
     45 -0.415679D-03  0.496105D-03  0.679297D-03 -0.233911D-03 -0.926207D-04
               36            37            38            39            40
     36  0.916634D-01
     37  0.267576D-02  0.316924D+00
     38 -0.694137D-02 -0.881313D-02  0.501708D-01
     39  0.230534D-02 -0.536288D-01  0.392283D-02  0.573145D-01
     40  0.590443D-03  0.266652D-02  0.141045D-02 -0.170394D-03  0.566587D+00
     41  0.644736D-03  0.694561D-03  0.998281D-03  0.886743D-03 -0.102063D-01
     42  0.181442D-02 -0.864463D-03  0.220337D-02  0.214841D-02 -0.114247D+00
     43  0.201024D-03 -0.385762D-03  0.735432D-03  0.449675D-03 -0.481116D+00
     44 -0.281180D-03 -0.634023D-03  0.363263D-03 -0.241552D-03  0.111679D-01
     45 -0.107523D-03 -0.131385D-02 -0.668014D-03 -0.169127D-03  0.835120D-01
               41            42            43            44            45
     41  0.645935D-01
     42 -0.664854D-02  0.364847D+00
     43  0.979822D-02  0.133116D+00  0.480501D+00
     44 -0.381362D-02 -0.144845D-02 -0.980493D-02  0.393263D-02
     45 -0.109113D-03 -0.709063D-01 -0.128759D+00  0.774120D-03  0.937082D-01
 FrcOut:
 IF    =   906 IFX   =   951 IFXYZ =   996
 IFFX  =  1041 IFFFX =  2076 IFLen =    45
 IFFLen=  1035 IFFFLn=     0 IEDerv=  2076
 LEDerv=  2213 IFroze=  4293 ICStrt= 49752
 DipoleDeriv   = 1.11447171D-01-5.95539870D-03-2.36955908D-02
                -3.78022080D-02 9.09294199D-03-3.39179479D-02
                -1.72308184D-02-4.13346841D-03 6.39957202D-02
                 4.90311576D-02-1.82532567D-02 1.23559760D-02
                -6.50146901D-03 8.28181188D-02 1.43593021D-02
                -1.13215641D-02-4.59903437D-02-1.24950704D-01
                -1.56052410D-01-3.91428033D-02 5.11421562D-02
                 2.17661718D-02 3.99708264D-02-2.43826611D-02
                 7.14807523D-02-1.01454392D-02 4.00877526D-02
                 1.64623381D-02 7.81060410D-02-4.13861400D-02
                 4.68581497D-02-1.62490405D-01 4.44910716D-02
                -3.84611314D-02 6.17120424D-02 4.76665885D-02
                 1.37936591D-01 3.21437000D-02-6.58972437D-02
                 3.70540059D-02-3.40841609D-02 6.52042708D-02
                -2.91811779D-02 3.72903205D-03 8.91007286D-02
                -1.90173713D-01-1.13399031D-02 3.78075276D-02
                -3.76927656D-02-5.11711894D-03 8.48833829D-03
                 7.72145671D-02-5.05260144D-03 2.79885932D-02
                 4.81341709D-02-1.56402174D-02 1.23641142D-02
                -1.29070972D-02 1.09461672D-02-2.21976780D-02
                -1.81030998D-02-1.68314372D-02-1.87246100D-01
                 2.51857794D-01 6.89164331D-03 1.21991398D-02
                 1.95097804D-02 5.06191696D-01-6.90135293D-03
                 2.26783041D-02-1.05066190D-02 7.58122367D-01
                -1.62788953D-01 3.10303359D-03 3.59646621D-02
                -1.24708126D-02 6.39407032D-03-2.14687926D-03
                 1.69877078D-02-3.27989783D-04-1.45500111D-02
                 1.05005152D-01-4.85562422D-02-6.96018066D-02
                -8.15661802D-02-1.03846330D-01-9.61563839D-02
                -2.64226517D-02-2.71442191D-02 3.21875511D-02
                 5.83254873D-02-1.11761867D-02 3.21381834D-02
                -1.36126087D-02 5.64311414D-02 1.32282438D-02
                 1.36120529D-02-3.21145977D-02-1.57627034D-01
                 2.87326051D-02 5.66936943D-02-3.79488086D-02
                 3.41782354D-02-1.23455015D-01 4.05896049D-02
                -3.57215135D-02 8.52574646D-02 3.83167840D-02
                -1.58004394D-01-1.95017592D-02 3.57903753D-02
                 4.89928039D-02 4.04428523D-02-2.69879586D-02
                 7.23898403D-02-1.15697955D-02 3.90102878D-02
                -2.10472666D-01-1.95907582D-02-1.10234490D-02
                -3.11600298D-02-6.66984850D-01 3.85104352D-02
                -4.77317269D-02 2.12154293D-02-9.47273460D-01
                 7.05596699D-02 1.22184133D-02 1.97909041D-02
                 2.53540245D-02 3.43690064D-01-1.21804057D-02
                -5.01895411D-02-8.09745741D-03 2.95170935D-01
 Full mass-weighted force constant matrix:
 Low frequencies ---  -16.2423  -10.2936   -0.0009   -0.0008   -0.0008   15.1987
 Low frequencies ---  118.1118  218.5756  238.4260
 Dipole derivatives wrt mode   1: -1.28866D-01 -1.57729D-01  2.80289D-01
 Vibrational polarizability contributions from mode   1       0.0320868       0.0480697       0.1517961
 Vibrational hyperpolarizability contributions from mode   1       0.0000000       0.0000000       0.0000000
 Dipole derivatives wrt mode   2:  1.82088D-01 -2.38645D-02  3.09141D-02
 Vibrational polarizability contributions from mode   2       0.0186784       0.0003208       0.0005384
 Vibrational hyperpolarizability contributions from mode   2       0.0000000       0.0000000       0.0000000
 Dipole derivatives wrt mode   3:  1.99359D-03  1.85149D+00 -6.09409D-02
 Vibrational polarizability contributions from mode   3       0.0000019       1.6229433       0.0017582
 Vibrational hyperpolarizability contributions from mode   3       0.0000000       0.0000000       0.0000000
 Dipole derivatives wrt mode   4: -1.36630D-01  1.18481D-01  5.74654D-01
 Vibrational polarizability contributions from mode   4       0.0077469       0.0058254       0.1370392
 Vibrational hyperpolarizability contributions from mode   4       0.0000000       0.0000000       0.0000000
 Dipole derivatives wrt mode   5: -7.74145D-01 -1.00877D+01  1.04560D-01
 Vibrational polarizability contributions from mode   5       0.1670269      28.3615550       0.0030470
 Vibrational hyperpolarizability contributions from mode   5       0.0000000       0.0000000       0.0000000
 Dipole derivatives wrt mode   6:  6.14919D-01  3.83677D+00 -1.32746D-02
 Vibrational polarizability contributions from mode   6       0.0718772       2.7982491       0.0000335
 Vibrational hyperpolarizability contributions from mode   6       0.0000000       0.0000000       0.0000000
 Dipole derivatives wrt mode   7:  7.98901D-01 -2.38744D+00 -1.37962D+00
 Vibrational polarizability contributions from mode   7       0.0799537       0.7140352       0.2384366
 Vibrational hyperpolarizability contributions from mode   7       0.0000000       0.0000000       0.0000000
 Dipole derivatives wrt mode   8:  7.42746D-01  3.57211D+00 -7.74086D-01
 Vibrational polarizability contributions from mode   8       0.0602831       1.3943273       0.0654778
 Vibrational hyperpolarizability contributions from mode   8       0.0000000       0.0000000       0.0000000
 Dipole derivatives wrt mode   9:  5.47335D-01  2.78733D-01  7.03608D-01
 Vibrational polarizability contributions from mode   9       0.0134488       0.0034878       0.0222249
 Vibrational hyperpolarizability contributions from mode   9       0.0000000       0.0000000       0.0000000
 Dipole derivatives wrt mode  10: -7.59005D-01  2.00190D-01  2.15386D+00
 Vibrational polarizability contributions from mode  10       0.0231613       0.0016112       0.1865127
 Vibrational hyperpolarizability contributions from mode  10       0.0000000       0.0000000       0.0000000
 Dipole derivatives wrt mode  11:  6.85424D-01 -1.28695D+00  3.61396D+00
 Vibrational polarizability contributions from mode  11       0.0149804       0.0528116       0.4164584
 Vibrational hyperpolarizability contributions from mode  11       0.0000000       0.0000000       0.0000000
 Dipole derivatives wrt mode  12: -8.78415D-01  1.63739D+00  3.20162D+00
 Vibrational polarizability contributions from mode  12       0.0215655       0.0749316       0.2864843
 Vibrational hyperpolarizability contributions from mode  12       0.0000000       0.0000000       0.0000000
 Dipole derivatives wrt mode  13: -5.60904D-01  1.22953D+00 -3.42264D+00
 Vibrational polarizability contributions from mode  13       0.0084582       0.0406425       0.3149378
 Vibrational hyperpolarizability contributions from mode  13       0.0000000       0.0000000       0.0000000
 Dipole derivatives wrt mode  14:  5.02317D-01  4.76886D-01  2.80757D+00
 Vibrational polarizability contributions from mode  14       0.0063127       0.0056897       0.1972063
 Vibrational hyperpolarizability contributions from mode  14       0.0000000       0.0000000       0.0000000
 Dipole derivatives wrt mode  15: -3.33893D-01 -1.63918D+00  7.66434D+00
 Vibrational polarizability contributions from mode  15       0.0024901       0.0600147       1.3120572
 Vibrational hyperpolarizability contributions from mode  15       0.0000000       0.0000000       0.0000000
 Dipole derivatives wrt mode  16:  2.11871D-01  3.58707D+00  3.05262D+00
 Vibrational polarizability contributions from mode  16       0.0009439       0.2705525       0.1959373
 Vibrational hyperpolarizability contributions from mode  16       0.0000000       0.0000000       0.0000000
 Dipole derivatives wrt mode  17:  1.73243D-01 -1.46230D+00  3.35878D+00
 Vibrational polarizability contributions from mode  17       0.0005817       0.0414453       0.2186592
 Vibrational hyperpolarizability contributions from mode  17       0.0000000       0.0000000       0.0000000
 Dipole derivatives wrt mode  18: -1.06922D-01 -2.49866D-01 -2.79308D+00
 Vibrational polarizability contributions from mode  18       0.0001928       0.0010529       0.1315579
 Vibrational hyperpolarizability contributions from mode  18       0.0000000       0.0000000       0.0000000
 Dipole derivatives wrt mode  19: -6.74001D-01 -1.62576D+00  1.04630D+00
 Vibrational polarizability contributions from mode  19       0.0069454       0.0404103       0.0167373
 Vibrational hyperpolarizability contributions from mode  19       0.0000000       0.0000000       0.0000000
 Dipole derivatives wrt mode  20:  2.18278D-01  5.84685D-01 -2.01474D+00
 Vibrational polarizability contributions from mode  20       0.0007135       0.0051190       0.0607831
 Vibrational hyperpolarizability contributions from mode  20       0.0000000       0.0000000       0.0000000
 Dipole derivatives wrt mode  21: -5.56708D-01  1.87085D+00  2.64248D-01
 Vibrational polarizability contributions from mode  21       0.0043132       0.0487103       0.0009718
 Vibrational hyperpolarizability contributions from mode  21       0.0000000       0.0000000       0.0000000
 Dipole derivatives wrt mode  22: -1.13536D+00 -2.13458D+00  2.52638D-01
 Vibrational polarizability contributions from mode  22       0.0175493       0.0620322       0.0008689
 Vibrational hyperpolarizability contributions from mode  22       0.0000000       0.0000000       0.0000000
 Dipole derivatives wrt mode  23:  1.68561D+00  2.15488D+00  2.34799D+00
 Vibrational polarizability contributions from mode  23       0.0384034       0.0627625       0.0745159
 Vibrational hyperpolarizability contributions from mode  23       0.0000000       0.0000000       0.0000000
 Dipole derivatives wrt mode  24: -9.28891D-01  5.41024D-01 -6.03302D+00
 Vibrational polarizability contributions from mode  24       0.0113883       0.0038633       0.4803977
 Vibrational hyperpolarizability contributions from mode  24       0.0000000       0.0000000       0.0000000
 Dipole derivatives wrt mode  25:  2.21545D-01  3.69908D-01 -3.33783D-01
 Vibrational polarizability contributions from mode  25       0.0006026       0.0016799       0.0013678
[...]
 Second derivative matrix not updated -- analytic derivatives used.
     Eigenvalues ---    0.00685   0.00775   0.01078   0.01194   0.06390
     Eigenvalues ---    0.10736   0.10826   0.11278   0.12944   0.13607
     Eigenvalues ---    0.15274   0.16082   0.18085   0.19969   0.22206
     Eigenvalues ---    0.23488   0.24608   0.27026   0.29403   0.29944
     Eigenvalues ---    0.30843   0.31633   0.32070   0.32412   0.32783
     Eigenvalues ---    0.33653   0.34012   0.34112   0.34503   0.34816
     Eigenvalues ---    0.34953   0.35207   0.36764   0.40178   0.42414
     Eigenvalues ---    0.43771   0.49721   0.53419   0.64812
 Angle between quadratic step and forces=  61.79 degrees.
 Linear search not attempted -- first point.
 Variable       Old X    -DE/DX   Delta X   Delta X   Delta X     New X
                                 (Linear)    (Quad)   (Total)
    B1        2.06288  -0.00002   0.00000  -0.00008  -0.00008   2.06281
    B2        2.06817   0.00001   0.00000   0.00003   0.00003   2.06820
    B3        2.06562   0.00000   0.00000   0.00002   0.00002   2.06564
    B4        2.89151   0.00000   0.00000  -0.00003  -0.00003   2.89148
    B5        2.07703  -0.00001   0.00000  -0.00005  -0.00005   2.07698
    B6        2.07169  -0.00002   0.00000  -0.00002  -0.00002   2.07166
    B7        2.89889   0.00000   0.00000  -0.00005  -0.00005   2.89883
    B8        2.06975  -0.00001   0.00000  -0.00001  -0.00001   2.06974
    B9        2.88720   0.00001   0.00000   0.00005   0.00005   2.88724
   B10        2.06715   0.00001   0.00000   0.00002   0.00002   2.06718
   B11        2.06350   0.00001   0.00000   0.00003   0.00003   2.06354
   B12        2.07166   0.00003   0.00000   0.00012   0.00012   2.07179
   B13        2.70806   0.00000   0.00000   0.00000   0.00000   2.70806
   B14        1.82154  -0.00003   0.00000  -0.00008  -0.00008   1.82146
    A1        1.87802   0.00000   0.00000   0.00021   0.00021   1.87823
    A2        1.89280   0.00000   0.00000  -0.00029  -0.00029   1.89250
    A3        1.92957  -0.00003   0.00000   0.00012   0.00012   1.92968
    A4        1.91798   0.00000   0.00000  -0.00018  -0.00018   1.91781
    A5        1.92160   0.00000   0.00000  -0.00010  -0.00010   1.92151
    A6        1.97908   0.00005   0.00000   0.00028   0.00028   1.97935
    A7        1.89726  -0.00001   0.00000  -0.00028  -0.00028   1.89698
    A8        1.96632  -0.00004   0.00000  -0.00024  -0.00024   1.96608
    A9        1.94415   0.00004   0.00000   0.00039   0.00039   1.94454
   A10        1.92333   0.00001   0.00000   0.00013   0.00013   1.92346
   A11        1.93196  -0.00004   0.00000  -0.00043  -0.00043   1.93154
   A12        1.94304   0.00017   0.00000   0.00060   0.00060   1.94364
   A13        1.87565  -0.00001   0.00000  -0.00015  -0.00015   1.87550
    D1       -2.02994  -0.00001   0.00000  -0.00005  -0.00005  -2.02999
    D2        2.11802  -0.00001   0.00000   0.00046   0.00046   2.11848
    D3        1.14876   0.00001   0.00000  -0.00601  -0.00601   1.14275
    D4       -3.10087   0.00001   0.00000  -0.00607  -0.00607  -3.10693
    D5       -0.96916  -0.00017   0.00000  -0.00668  -0.00668  -0.97584
    D6       -0.97538   0.00000   0.00000  -0.00311  -0.00311  -0.97849
    D7       -3.08571  -0.00010   0.00000  -0.00303  -0.00303  -3.08874
    D8        1.06196   0.00000   0.00000  -0.00169  -0.00169   1.06027
    D9       -3.11646  -0.00001   0.00000  -0.00143  -0.00143  -3.11789
   D10       -1.02946  -0.00001   0.00000  -0.00157  -0.00157  -1.03104
   D11        1.01112   0.00002   0.00000  -0.00291  -0.00291   1.00821
   D12        1.13256   0.00008   0.00000   0.00746   0.00746   1.14002
         Item               Value     Threshold  Converged?
 Maximum Force            0.000175     0.000450     YES
 RMS     Force            0.000047     0.000300     YES
 Maximum Displacement     0.007457     0.001800     NO 
 RMS     Displacement     0.002316     0.001200     NO 
 Predicted change in Energy=-1.003378D-06
 GradGradGradGradGradGradGradGradGradGradGradGradGradGradGradGradGradGrad


 Test job not archived.
 1\1\GINC-NODE56\Freq\RB3LYP\CBSB7\C4H10O1\MRHARPER\19-Oct-2009\1\\# fr
 eq geom=connectivity b3lyp/cbsb7 nosymm iop(7/33=1)\\sBuOH: frequency\
 \0,1\C\H,1,B1\H,1,B2,2,A1\H,1,B3,2,A2,3,D1,0\C,1,B4,2,A3,3,D2,0\H,5,B5
 ,1,A4,2,D3,0\H,5,B6,1,A5,2,D4,0\C,5,B7,1,A6,2,D5,0\H,8,B8,5,A7,1,D6,0\
 C,8,B9,5,A8,1,D7,0\H,10,B10,8,A9,5,D8,0\H,10,B11,8,A10,5,D9,0\H,10,B12
 ,8,A11,5,D10,0\O,8,B13,5,A12,1,D11,0\H,14,B14,8,A13,5,D12,0\\B1=1.0916
 3039\B2=1.09442924\B3=1.09308031\B4=1.53012282\B5=1.09911689\B6=1.0962
 9045\B7=1.53402512\B8=1.09526453\B9=1.52783933\B10=1.09389111\B11=1.09
 195925\B12=1.09627694\B13=1.43304174\B14=0.96391547\A1=107.6028792\A2=
 108.44917221\A3=110.55600905\A4=109.89237978\A5=110.09972586\A6=113.39
 278599\A7=108.70493497\A8=112.66185126\A9=111.39138974\A10=110.1984900
 4\A11=110.69341439\A12=111.32812096\A13=107.46691404\D1=-116.30678606\
 D2=121.35377905\D3=65.81926385\D4=-177.66656226\D5=-55.52869496\D6=-55
 .88525916\D7=-176.79788897\D8=60.84607983\D9=-178.55981595\D10=-58.983
 99416\D11=57.93285673\D12=64.89085244\\Version=AM64L-G03RevD.01\HF=-23
 3.743049\RMSD=6.431e-09\RMSF=1.495e-05\ZeroPoint=0.1361125\Thermal=0.1
 428503\Dipole=-0.4760628,0.016084,-0.3897835\DipoleDeriv=0.1114472,-0.
 0059554,-0.0236956,-0.0378022,0.0090929,-0.0339179,-0.0172308,-0.00413
 35,0.0639957,0.0490312,-0.0182533,0.012356,-0.0065015,0.0828181,0.0143
 593,-0.0113216,-0.0459903,-0.1249507,-0.1560524,-0.0391428,0.0511422,0
 .0217662,0.0399708,-0.0243827,0.0714808,-0.0101454,0.0400878,0.0164623
 ,0.078106,-0.0413861,0.0468581,-0.1624904,0.0444911,-0.0384611,0.06171
 2,0.0476666,0.1379366,0.0321437,-0.0658972,0.037054,-0.0340842,0.06520
 43,-0.0291812,0.003729,0.0891007,-0.1901737,-0.0113399,0.0378075,-0.03
 76928,-0.0051171,0.0084883,0.0772146,-0.0050526,0.0279886,0.0481342,-0
 .0156402,0.0123641,-0.0129071,0.0109462,-0.0221977,-0.0181031,-0.01683
 14,-0.1872461,0.2518578,0.0068916,0.0121991,0.0195098,0.5061917,-0.006
 9014,0.0226783,-0.0105066,0.7581224,-0.162789,0.003103,0.0359647,-0.01
 24708,0.0063941,-0.0021469,0.0169877,-0.000328,-0.01455,0.1050052,-0.0
 485562,-0.0696018,-0.0815662,-0.1038463,-0.0961564,-0.0264227,-0.02714
 42,0.0321876,0.0583255,-0.0111762,0.0321382,-0.0136126,0.0564311,0.013
 2282,0.0136121,-0.0321146,-0.157627,0.0287326,0.0566937,-0.0379488,0.0
 341782,-0.123455,0.0405896,-0.0357215,0.0852575,0.0383168,-0.1580044,-
 0.0195018,0.0357904,0.0489928,0.0404429,-0.026988,0.0723898,-0.0115698
 ,0.0390103,-0.2104727,-0.0195908,-0.0110234,-0.03116,-0.6669848,0.0385
 104,-0.0477317,0.0212154,-0.9472735,0.0705597,0.0122184,0.0197909,0.02
 5354,0.3436901,-0.0121804,-0.0501895,-0.0080975,0.2951709\Polar=48.952
 1564,2.1897692,57.1057534,-0.1930642,0.9905765,49.7816032\PG=C01 [X(C4
 H10O1)]\NImag=0\\0.53646236,-0.04183620,0.50535351,-0.01574562,-0.0322
 0129,0.55366975,-0.04856611,0.00063726,0.00267813,0.04947441,0.0006091
 1,-0.04636892,0.00441826,0.00255174,0.04960516,0.00263394,0.00137931,-
 0.31090775,-0.00129208,-0.00121491,0.33889905,-0.27819983,0.00315988,0
 .07618176,0.00049177,0.00024869,0.00027739,0.30460715,0.00418462,-0.04
 737041,-0.00076216,-0.00063647,-0.00082772,0.00038116,-0.00082716,0.05
 005077,0.07702625,-0.00061082,-0.07273213,0.03186036,-0.00135197,-0.00
 886652,-0.08315476,0.00302898,0.07433367,-0.09527103,0.09568325,-0.036
 13551,-0.00063656,-0.00155026,0.00036503,-0.01271148,0.02604203,-0.010
 95979,0.10103549,0.09432790,-0.23157288,0.07089091,-0.00073484,0.00046
 440,0.00036122,0.00033339,0.00024667,-0.00054403,-0.10223612,0.2538346
 9,-0.03604661,0.07161482,-0.07423629,-0.01470939,0.02767315,-0.0085627
 1,0.00427381,-0.00992372,0.00287375,0.04093934,-0.07704883,0.07650645,
 -0.10770724,-0.04272580,-0.02059744,0.00005128,0.00067688,0.00000791,-
 0.01610172,-0.02663425,-0.01312883,0.00730968,0.01196923,0.00645500,0.
 54093372,-0.04306789,-0.14473587,-0.03046898,0.00006660,-0.00037594,-0
 .00207136,-0.00034385,-0.00050797,0.00024632,-0.01611699,-0.02133932,-
 0.01208278,-0.00000912,0.44625682,-0.02149520,-0.03082317,-0.09490248,
 -0.01781040,-0.02843015,-0.01137346,0.00457488,0.00894148,0.00350483,0
 .00675976,0.00912974,0.00368619,-0.02788143,0.01231348,0.56572916,-0.0
 1567761,-0.00004085,0.00407515,0.00033422,0.00026284,-0.00040663,-0.00
 018212,-0.00282999,-0.00162089,0.00081120,-0.00037252,0.00018841,-0.27
 323719,0.01454174,0.05946117,0.30158768,-0.02748253,0.00006719,0.00737
 520,0.00083622,0.00101284,-0.00012383,-0.00290305,-0.00423565,-0.00263
 146,0.00048986,0.00089172,0.00070344,0.01514437,-0.04752893,-0.0029892
 5,-0.01586955,0.05633756,-0.01207302,0.00037847,0.00298238,-0.00012661
 ,0.00075173,0.00054863,-0.00167734,-0.00194634,0.00017320,0.00056574,0
 .00055632,0.00033665,0.05938032,-0.00389358,-0.06453342,-0.06445391,0.
 00425018,0.06539695,0.00009750,-0.00066611,-0.01744264,-0.00086144,-0.
 00297635,-0.00164989,0.00056077,0.00081628,-0.00019017,0.00043864,0.00
 041566,0.00062111,-0.04895187,0.00129029,0.01329704,-0.00160519,-0.000
 37561,0.03161891,0.04959151,0.00053600,-0.00145977,-0.02880961,-0.0032
 3547,-0.00460409,-0.00151809,0.00020923,0.00119301,0.00084138,0.000829
 58,0.00072268,0.00036099,0.00177836,-0.04785931,-0.00225446,0.00023860
 ,-0.00043026,-0.00256565,0.00117354,0.05459028,0.00020911,-0.00066860,
 -0.01053943,-0.00120478,-0.00186776,0.00076306,-0.00049418,0.00016341,
 0.00062557,0.00019060,-0.00048103,0.00039765,0.01226298,-0.00044987,-0
 .29724624,0.00126239,0.00011042,-0.00809857,-0.01213164,0.00320288,0.3
 2564254,0.00790627,-0.01373426,0.00756464,0.00050470,0.00065271,-0.000
 50679,0.00016924,-0.00176975,0.00056842,-0.00206778,-0.00421974,-0.001
 81776,-0.09982878,0.03197729,-0.00601558,-0.01652605,0.03075378,-0.011
 88194,-0.00001225,-0.00488980,0.00264551,0.62432980,0.00763043,-0.0313
 1253,0.00697046,0.00048112,0.00099947,0.00100643,0.00126297,0.00183408
 ,0.00037846,-0.00210140,-0.00220467,-0.00179387,0.03481397,-0.14992404
 ,0.01783084,0.00208143,-0.00476856,0.00252874,-0.00109126,0.00289030,-
 0.00271630,-0.00144703,0.46787184,0.00764317,-0.00841204,0.00725587,-0
 .00001543,-0.00262578,-0.00194746,-0.00010797,0.00049495,0.00014526,-0
 .00197329,-0.00356659,-0.00239912,-0.01391988,0.02275758,-0.07861459,0
 .00533313,-0.00807143,0.00108284,-0.01193521,0.02648637,-0.01285322,-0
 .03744599,0.00614752,0.44458115,0.00085931,-0.00096532,0.00004210,0.00
 000606,0.00002451,0.00003928,0.00066070,0.00074134,0.00012955,0.000360
 96,-0.00006102,-0.00012012,-0.01347338,0.00225344,0.00148319,0.0003744
 7,0.00182241,-0.00141418,0.00006902,0.00028391,-0.00057670,-0.29139350
 ,0.01304195,0.04868572,0.31443053,0.00108590,0.00178526,-0.00038120,-0
 .00002600,-0.00008368,-0.00012795,-0.00089767,-0.00027699,0.00014704,-
 0.00030055,0.00035330,0.00015640,0.02912996,-0.00434450,-0.00484226,0.
 00250448,-0.00465515,0.00188151,-0.00062139,0.00085883,0.00014360,0.01
 377746,-0.05139575,-0.00305363,-0.01381016,0.05784906,0.00032778,-0.00
 051600,0.00008126,0.00010093,0.00017052,0.00001038,0.00022124,-0.00006
 075,0.00011761,-0.00008210,-0.00016311,-0.00010759,-0.01111457,0.00131
 886,0.00393251,-0.00118278,0.00234857,-0.00005476,0.00025339,-0.000709
 11,0.00037143,0.03793100,-0.00226935,-0.05368941,-0.05394349,0.0025497
 8,0.07701581,-0.00166479,0.00216406,-0.00098700,-0.00000692,-0.0000333
 5,0.00012392,0.00044506,0.00006253,-0.00017636,0.00069390,0.00087228,0
 .00019555,0.00680456,0.00924585,0.00529593,0.00040695,0.00119404,0.000
 21252,0.00024167,-0.00040406,0.00028554,-0.11007169,-0.04318324,-0.019
 24165,-0.01498970,-0.02738220,-0.01324557,0.53610143,0.00283041,-0.002
 99879,0.00232007,0.00008866,0.00002290,-0.00018314,-0.00014185,-0.0000
 8476,0.00012707,-0.00078562,-0.00114403,-0.00057133,-0.01472222,-0.030
 40575,-0.00942380,-0.00086183,0.00167552,-0.00069909,-0.00044456,0.000
 39367,-0.00094243,-0.04069429,-0.14908162,-0.02948206,-0.00045979,-0.0
 0028269,0.00011034,-0.04055071,0.50687236,-0.00154581,0.00289449,-0.00
 120784,-0.00004933,0.00029859,-0.00004457,-0.00004713,-0.00018024,-0.0
 0002167,0.00031640,0.00107192,0.00047580,0.00600374,0.00593017,0.00903
 936,-0.00034620,0.00003807,-0.00024869,0.00017889,-0.00013901,-0.00005
 063,-0.01140876,-0.02286658,-0.08196123,0.00148326,0.00402270,0.003630
 94,-0.01569673,-0.03782515,0.55739602,-0.00005836,0.00013329,-0.000087
 29,-0.00000930,0.00006132,0.00000174,-0.00004297,-0.00001918,-0.000001
 74,0.00000604,0.00003981,0.00004388,0.00006567,0.00033103,0.00029330,0
 .00007298,0.00002766,0.00012541,0.00033886,-0.00007216,-0.00003152,0.0
 0195410,0.00272339,-0.01394575,0.00014743,0.00071645,0.00027366,-0.050
 19868,-0.00008958,0.03166376,0.05043745,-0.00013690,0.00020232,0.00028
 024,0.00006233,0.00024460,0.00000286,-0.00000010,-0.00001433,-0.000023
 53,0.00002033,0.00005522,0.00001334,0.00039869,0.00035163,0.00013249,-
 0.00010124,-0.00004885,-0.00000009,-0.00010599,-0.00098609,0.00023455,
 0.00729286,0.00265229,-0.02322585,-0.00011236,0.00093872,0.00063866,-0
 .00009893,-0.04835862,-0.00523865,0.00071027,0.04814689,-0.00011153,-0
 .00031386,0.00034399,0.00007051,0.00027002,0.00015136,-0.00002976,-0.0
 0000669,-0.00003006,-0.00001250,-0.00005719,0.00002460,0.00009374,0.00
 078253,-0.00040384,-0.00013546,0.00002510,0.00005995,0.00006408,-0.000
 27471,0.00106906,0.00376091,0.00354505,-0.01196530,-0.00061390,-0.0000
 5743,0.00045859,0.03087732,-0.00690284,-0.30218484,-0.03366623,0.00709
 056,0.32981515,0.00081201,-0.00085924,0.00011531,-0.00000186,0.0000277
 8,-0.00000321,0.00002687,0.00012457,0.00006587,-0.00016531,-0.00028629
 ,-0.00008615,-0.00124375,-0.00173222,-0.00172863,0.00040175,-0.0003986
 0,-0.00016607,-0.00023390,0.00010338,-0.00012775,0.00598160,-0.0151091
 8,0.00692153,0.00078558,0.00033117,0.00076927,-0.08559016,0.08504433,-
 0.03949492,0.00088444,-0.00466272,0.00165964,0.08977664,0.00119676,-0.
 00091867,0.00087266,-0.00001196,-0.00009072,-0.00011643,-0.00010056,-0
 .00000762,0.00003695,-0.00031231,-0.00053862,-0.00023917,-0.00430827,-
 0.00285456,-0.00347627,0.00004367,0.00027103,-0.00012527,-0.00011047,0
 .00042763,0.00002153,0.01112823,-0.02413298,0.01239113,-0.00029165,0.0
 0094120,0.00019391,0.08359526,-0.23151232,0.08644297,-0.00142270,0.002
 04400,-0.00067138,-0.09018176,0.25323074,0.00009419,-0.00064936,0.0006
 3310,0.00007369,0.00006706,0.00003345,-0.00001147,-0.00002733,-0.00001
 115,-0.00012435,-0.00020617,-0.00005553,-0.00115013,-0.00158748,-0.001
 42073,-0.00014118,0.00013335,-0.00004139,-0.00003833,-0.00015678,0.000
 40572,0.00528864,-0.01231015,0.00364960,0.00034664,0.00072546,0.000228
 40,-0.03921024,0.08915884,-0.08801222,-0.01244319,0.02681631,-0.011084
 92,0.04384851,-0.09538593,0.09166345,0.00046266,-0.00016943,-0.0001591
 1,-0.00003553,0.00001142,-0.00000964,0.00013130,0.00027351,0.00005435,
 -0.00000793,-0.00012358,-0.00003369,0.00045008,0.00137784,-0.00018187,
 0.00094923,-0.00087277,0.00007451,0.00001068,-0.00001454,-0.00009260,-
 0.01843682,0.00025498,0.00518031,0.00018910,-0.00302229,-0.00168313,-0
 .28869018,0.01055943,0.04929997,-0.00289829,0.00026096,0.00068230,-0.0
 1132871,0.00021708,0.00267576,0.31692364,0.00009952,-0.00013971,-0.000
 08679,-0.00002037,0.00005816,0.00003450,0.00024205,0.00008473,-0.00001
 209,0.00008719,-0.00001498,0.00000246,-0.00110700,0.00198311,0.0002060
 9,0.00056907,-0.00032013,-0.00024317,-0.00000378,-0.00009227,0.0000844
 0,-0.02886472,0.00025026,0.00650655,-0.00234725,-0.00390332,-0.0024832
 3,0.01082149,-0.04794949,-0.00259697,0.00077949,-0.00114424,0.00007145
 ,0.02641157,-0.00034449,-0.00694137,-0.00881313,0.05017082,-0.00014433
 ,0.00012458,-0.00007169,-0.00002994,-0.00006305,-0.00000526,0.00001953
 ,-0.00001037,-0.00003339,0.00005467,0.00003916,-0.00000160,0.00016814,
 0.00080996,-0.00009139,0.00016488,0.00009372,0.00019707,0.00016781,-0.
 00000519,0.00000535,-0.01366016,0.00013128,0.00113319,-0.00145534,-0.0
 0213044,-0.00027501,0.04898611,-0.00170904,-0.05729143,0.03206438,-0.0
 0146175,-0.00516499,-0.01298619,-0.00038687,0.00230534,-0.05362885,0.0
 0392283,0.05731454,0.00077173,-0.00070548,0.00025260,-0.00057999,-0.00
 015453,0.00038030,0.00014621,0.00044309,-0.00031392,0.00017052,0.00000
 633,0.00015302,0.00230171,0.00081611,-0.01424876,0.00268059,-0.0016864
 4,-0.00063849,0.00051383,0.00291908,-0.00173038,-0.09668273,0.00022854
 ,0.02738755,-0.00063357,-0.00133987,0.03975536,0.00346704,-0.00026487,
 -0.01857458,-0.00033006,-0.00302815,-0.00210819,0.00003707,0.00039414,
 0.00059044,0.00266652,0.00141045,-0.00017039,0.56658678,-0.00017256,0.
 00010153,-0.00078103,0.00053513,0.00048861,0.00228040,-0.00050066,-0.0
 0025753,0.00069490,0.00023225,0.00025854,0.00126956,-0.00156283,0.0006
 9727,0.03298001,-0.00108025,0.00158545,-0.00105749,0.00212627,-0.00561
 474,0.00373741,0.00129318,-0.06325750,0.00299990,-0.00016339,0.0016225
 0,-0.00110726,0.00150995,0.00254666,-0.03170360,-0.00338243,-0.0039658
 8,-0.00408663,0.00087889,0.00401696,0.00064474,0.00069456,0.00099828,0
 .00088674,-0.01020633,0.06459348,-0.00081554,-0.00242633,-0.00060818,0
 .00047817,0.00167109,0.00134805,0.00014232,0.00008932,0.00001234,0.000
 10591,0.00011262,0.00101432,0.00236641,0.00640605,-0.03853241,-0.00083
 019,-0.00212108,0.00226076,-0.00232304,0.00602698,-0.00108490,-0.02246
 071,0.00432141,-0.19521881,0.00619487,0.00067206,-0.02429398,0.0015649
 5,-0.00363804,-0.04103261,-0.00387474,-0.00575525,-0.00176805,0.001446
 70,0.00053479,0.00181442,-0.00086446,0.00220337,0.00214841,-0.11424654
 ,-0.00664854,0.36484695,-0.00022686,-0.00007503,0.00024494,-0.00016471
 ,-0.00041252,0.00003873,-0.00000097,0.00002883,-0.00015836,0.00003368,
 0.00006950,-0.00005643,0.00262724,-0.00063012,-0.00180338,-0.00039093,
 -0.00067980,0.00045414,-0.00019784,0.00054437,-0.00046659,-0.00582611,
 0.00041334,-0.00256623,0.00260700,-0.00014528,0.00161901,0.00305152,0.
 00049249,-0.00178255,-0.00036931,-0.00049905,-0.00053093,-0.00014228,0
 .00016455,0.00020102,-0.00038576,0.00073543,0.00044967,-0.48111565,0.0
 0979822,0.13311590,0.48050099,0.00019542,-0.00063227,0.00036325,-0.000
 59393,-0.00054507,-0.00009015,0.00025869,0.00017373,-0.00032719,0.0000
 1877,-0.00001269,-0.00013446,-0.00284197,0.00058736,0.00070523,0.00091
 439,0.00014623,0.00018371,0.00057349,-0.00002986,-0.00057221,-0.001255
 91,-0.00042058,0.00065338,0.00004339,0.00059319,-0.00002181,0.00218703
 ,0.00030695,-0.00014871,-0.00053666,-0.00011767,0.00058601,0.00030831,
 -0.00053158,-0.00028118,-0.00063402,0.00036326,-0.00024155,0.01116793,
 -0.00381362,-0.00144845,-0.00980493,0.00393263,0.00004320,0.00022980,0
 .00023943,-0.00002382,0.00023320,-0.00004624,-0.00016832,-0.00018171,-
 0.00009131,-0.00000991,-0.00009493,0.00004743,0.00105404,-0.00001089,0
 .00122650,-0.00136789,0.00085900,-0.00006158,-0.00049033,-0.00048599,0
 .00059261,0.04743858,-0.00090392,-0.01919875,-0.00028086,0.00029436,-0
 .00742620,0.00101570,-0.00033939,0.00151362,-0.00041568,0.00049610,0.0
 0067930,-0.00023391,-0.00009262,-0.00010752,-0.00131385,-0.00066801,-0
 .00016913,0.08351199,-0.00010911,-0.07090631,-0.12875894,0.00077412,0.
 09370816\\0.00000181,-0.00000760,-0.00000518,0.00000683,-0.00001664,0.
 00001893,-0.00001186,0.00001254,0.00000135,0.00000202,0.00000367,-0.00
 000232,0.00000888,0.00001075,0.00001286,-0.00000845,-0.00000273,0.0000
 0773,-0.00000390,0.00000306,-0.00002087,0.00000986,-0.00005092,-0.0000
 1343,0.00000683,-0.00000421,0.00000281,-0.00000466,-0.00000682,0.00000
 164,0.00000739,0.00001616,0.00001456,-0.00000483,0.00000895,0.00000319
 ,0.00002327,-0.00001472,-0.00001845,-0.00000676,0.00000352,-0.00001675
 ,-0.00002643,0.00004499,0.00001393\\\@


 IN THE UNIVERSE THE DIFFICULT THINGS ARE DONE AS IF THEY WERE EASY.

                                                          -- LAO-TSU
 Job cpu time:  0 days  0 hours 23 minutes 54.4 seconds.
 File lengths (MBytes):  RWF=     37 Int=      0 D2E=      0 Chk=     11 Scr=      1
 Normal termination of Gaussian 03 at Mon Oct 19 14:32:28 2009.
