 Entering Gaussian System, Link 0=g03
 Input=sBuOH-geom.com
 Output=sBuOH-geom.log
 Initial command:
 /opt/g03/l1.exe /scratch/mrharper/Gau-23622.inp -scrdir=/scratch/mrharper/
 Entering Link 1 = /opt/g03/l1.exe PID=     23624.
  
 Copyright (c) 1988,1990,1992,1993,1995,1998,2003,2004, Gaussian, Inc.
                  All Rights Reserved.
  
 This is the Gaussian(R) 03 program.  It is based on the
 the Gaussian(R) 98 system (copyright 1998, Gaussian, Inc.),
 the Gaussian(R) 94 system (copyright 1995, Gaussian, Inc.),
 the Gaussian 92(TM) system (copyright 1992, Gaussian, Inc.),
 the Gaussian 90(TM) system (copyright 1990, Gaussian, Inc.),
 the Gaussian 88(TM) system (copyright 1988, Gaussian, Inc.),
 the Gaussian 86(TM) system (copyright 1986, Carnegie Mellon
 University), and the Gaussian 82(TM) system (copyright 1983,
 Carnegie Mellon University). Gaussian is a federally registered
 trademark of Gaussian, Inc.
  
 This software contains proprietary and confidential information,
 including trade secrets, belonging to Gaussian, Inc.
  
 This software is provided under written license and may be
 used, copied, transmitted, or stored only in accord with that
 written license.
  
 The following legend is applicable only to US Government
 contracts under FAR:
  
                    RESTRICTED RIGHTS LEGEND
  
 Use, reproduction and disclosure by the US Government is
 subject to restrictions as set forth in subparagraphs (a)
 and (c) of the Commercial Computer Software - Restricted
 Rights clause in FAR 52.227-19.
  
 Gaussian, Inc.
 340 Quinnipiac St., Bldg. 40, Wallingford CT 06492
  
  
 ---------------------------------------------------------------
 Warning -- This program may not be used in any manner that
 competes with the business of Gaussian, Inc. or will provide
 assistance to any competitor of Gaussian, Inc.  The licensee
 of this program is prohibited from giving any competitor of
 Gaussian, Inc. access to this program.  By using this program,
 the user acknowledges that Gaussian, Inc. is engaged in the
 business of creating and licensing software in the field of
 computational chemistry and represents and warrants to the
 licensee that it is not a competitor of Gaussian, Inc. and that
 it will not use this program in any manner prohibited above.
 ---------------------------------------------------------------
  

 Cite this work as:
 Gaussian 03, Revision D.01,
 M. J. Frisch, G. W. Trucks, H. B. Schlegel, G. E. Scuseria, 
 M. A. Robb, J. R. Cheeseman, J. A. Montgomery, Jr., T. Vreven, 
 K. N. Kudin, J. C. Burant, J. M. Millam, S. S. Iyengar, J. Tomasi, 
 V. Barone, B. Mennucci, M. Cossi, G. Scalmani, N. Rega, 
 G. A. Petersson, H. Nakatsuji, M. Hada, M. Ehara, K. Toyota, 
 R. Fukuda, J. Hasegawa, M. Ishida, T. Nakajima, Y. Honda, O. Kitao, 
 H. Nakai, M. Klene, X. Li, J. E. Knox, H. P. Hratchian, J. B. Cross, 
 V. Bakken, C. Adamo, J. Jaramillo, R. Gomperts, R. E. Stratmann, 
 O. Yazyev, A. J. Austin, R. Cammi, C. Pomelli, J. W. Ochterski, 
 P. Y. Ayala, K. Morokuma, G. A. Voth, P. Salvador, J. J. Dannenberg, 
 V. G. Zakrzewski, S. Dapprich, A. D. Daniels, M. C. Strain, 
 O. Farkas, D. K. Malick, A. D. Rabuck, K. Raghavachari, 
 J. B. Foresman, J. V. Ortiz, Q. Cui, A. G. Baboul, S. Clifford, 
 J. Cioslowski, B. B. Stefanov, G. Liu, A. Liashenko, P. Piskorz, 
 I. Komaromi, R. L. Martin, D. J. Fox, T. Keith, M. A. Al-Laham, 
 C. Y. Peng, A. Nanayakkara, M. Challacombe, P. M. W. Gill, 
 B. Johnson, W. Chen, M. W. Wong, C. Gonzalez, and J. A. Pople, 
 Gaussian, Inc., Wallingford CT, 2004.
 
 ******************************************
 Gaussian 03:  AM64L-G03RevD.01 13-Oct-2005
                19-Oct-2009 
 ******************************************
 %chk=sBuOH-geom.chk
 %mem=1000mb
 %nproc=8
 Will use up to    8 processors via shared memory.
 --------------------------------------
 # opt=calcfc geom=connectivity cbs-qb3
 --------------------------------------
 1/10=4,14=-1,18=20,26=3,38=1,57=2/1,3;
 2/9=110,17=6,18=5,40=1/2;
 3/5=4,6=6,7=700,11=2,16=1,25=1,30=1,74=-5/1,2,3;
 4//1;
 5/5=2,38=5/2;
 8/6=4,10=90,11=11/1;
 11/6=1,8=1,9=11,15=111,16=1/1,2,10;
 10/6=1,7=6/2;
 6/7=2,8=2,9=2,10=2,28=1/1;
 7/10=1,18=20,25=1/1,2,3,16;
 1/10=4,14=-1,18=20/3(3);
 2/9=110/2;
 6/7=2,8=2,9=2,10=2,19=2,28=1/1;
 99//99;
 2/9=110/2;
 3/5=4,6=6,7=700,11=2,16=1,25=1,30=1,74=-5/1,2,3;
 4/5=5,16=3/1;
 5/5=2,38=5/2;
 7//1,2,3,16;
 1/14=-1,18=20/3(-5);
 2/9=110/2;
 6/7=2,8=2,9=2,10=2,19=2,28=1/1;
 99/9=1/99;
 ---------------
 sBuOH: geometry
 ---------------
 Symbolic Z-matrix:
 Charge =  0 Multiplicity = 1
 C
 H                    1    B1
 H                    1    B2       2    A1
 H                    1    B3       2    A2       3    D1       0
 C                    1    B4       2    A3       3    D2       0
 H                    5    B5       1    A4       2    D3       0
 H                    5    B6       1    A5       2    D4       0
 C                    5    B7       1    A6       2    D5       0
 H                    8    B8       5    A7       1    D6       0
 C                    8    B9       5    A8       1    D7       0
 H                    10   B10      8    A9       5    D8       0
 H                    10   B11      8    A10      5    D9       0
 H                    10   B12      8    A11      5    D10      0
 O                    8    B13      5    A12      1    D11      0
 H                    14   B14      8    A13      5    D12      0
       Variables:
  B1                    1.09416                  
  B2                    1.09696                  
  B3                    1.09566                  
  B4                    1.53089                  
  B5                    1.10177                  
  B6                    1.09876                  
  B7                    1.53585                  
  B8                    1.09765                  
  B9                    1.53001                  
  B10                   1.09631                  
  B11                   1.09457                  
  B12                   1.09896                  
  B13                   1.43196                  
  B14                   0.97151                  
  A1                  107.55812                  
  A2                  108.47515                  
  A3                  110.60331                  
  A4                  109.88627                  
  A5                  110.13658                  
  A6                  113.37008                  
  A7                  108.66519                  
  A8                  112.54615                  
  A9                  111.39201                  
  A10                 110.35658                  
  A11                 110.72506                  
  A12                 111.48759                  
  A13                 107.03942                  
  D1                 -116.29168                  
  D2                  121.37073                  
  D3                   65.11303                  
  D4                 -178.49536                  
  D5                  -56.3582                   
  D6                  -56.51689                  
  D7                 -177.29001                  
  D8                   60.27869                  
  D9                 -179.07096                  
  D10                 -59.38344                  
  D11                  57.34313                  
  D12                  64.66165                  
 

 GradGradGradGradGradGradGradGradGradGradGradGradGradGradGradGradGradGrad
 Berny optimization.
 Initialization pass.
                           ----------------------------
                           !    Initial Parameters    !
                           ! (Angstroms and Degrees)  !
 --------------------------                            --------------------------
 ! Name  Definition              Value          Derivative Info.                !
 --------------------------------------------------------------------------------
 ! R1    R(1,2)                  1.0942         calculate D2E/DX2 analytically  !
 ! R2    R(1,3)                  1.097          calculate D2E/DX2 analytically  !
 ! R3    R(1,4)                  1.0957         calculate D2E/DX2 analytically  !
 ! R4    R(1,5)                  1.5309         calculate D2E/DX2 analytically  !
 ! R5    R(5,6)                  1.1018         calculate D2E/DX2 analytically  !
 ! R6    R(5,7)                  1.0988         calculate D2E/DX2 analytically  !
 ! R7    R(5,8)                  1.5359         calculate D2E/DX2 analytically  !
 ! R8    R(8,9)                  1.0977         calculate D2E/DX2 analytically  !
 ! R9    R(8,10)                 1.53           calculate D2E/DX2 analytically  !
 ! R10   R(8,14)                 1.432          calculate D2E/DX2 analytically  !
 ! R11   R(10,11)                1.0963         calculate D2E/DX2 analytically  !
 ! R12   R(10,12)                1.0946         calculate D2E/DX2 analytically  !
 ! R13   R(10,13)                1.099          calculate D2E/DX2 analytically  !
 ! R14   R(14,15)                0.9715         calculate D2E/DX2 analytically  !
 ! A1    A(2,1,3)              107.5581         calculate D2E/DX2 analytically  !
 ! A2    A(2,1,4)              108.4752         calculate D2E/DX2 analytically  !
 ! A3    A(2,1,5)              110.6033         calculate D2E/DX2 analytically  !
 ! A4    A(3,1,4)              107.7547         calculate D2E/DX2 analytically  !
 ! A5    A(3,1,5)              111.0031         calculate D2E/DX2 analytically  !
 ! A6    A(4,1,5)              111.3076         calculate D2E/DX2 analytically  !
 ! A7    A(1,5,6)              109.8863         calculate D2E/DX2 analytically  !
 ! A8    A(1,5,7)              110.1366         calculate D2E/DX2 analytically  !
 ! A9    A(1,5,8)              113.3701         calculate D2E/DX2 analytically  !
 ! A10   A(6,5,7)              105.9827         calculate D2E/DX2 analytically  !
 ! A11   A(6,5,8)              108.4052         calculate D2E/DX2 analytically  !
 ! A12   A(7,5,8)              108.7781         calculate D2E/DX2 analytically  !
 ! A13   A(5,8,9)              108.6652         calculate D2E/DX2 analytically  !
 ! A14   A(5,8,10)             112.5462         calculate D2E/DX2 analytically  !
 ! A15   A(5,8,14)             111.4876         calculate D2E/DX2 analytically  !
 ! A16   A(9,8,10)             108.9638         calculate D2E/DX2 analytically  !
 ! A17   A(9,8,14)             103.849          calculate D2E/DX2 analytically  !
 ! A18   A(10,8,14)            110.9141         calculate D2E/DX2 analytically  !
 ! A19   A(8,10,11)            111.392          calculate D2E/DX2 analytically  !
 ! A20   A(8,10,12)            110.3566         calculate D2E/DX2 analytically  !
 ! A21   A(8,10,13)            110.7251         calculate D2E/DX2 analytically  !
 ! A22   A(11,10,12)           108.551          calculate D2E/DX2 analytically  !
 ! A23   A(11,10,13)           107.5714         calculate D2E/DX2 analytically  !
 ! A24   A(12,10,13)           108.1308         calculate D2E/DX2 analytically  !
 ! A25   A(8,14,15)            107.0394         calculate D2E/DX2 analytically  !
 ! D1    D(2,1,5,6)             65.113          calculate D2E/DX2 analytically  !
 ! D2    D(2,1,5,7)           -178.4954         calculate D2E/DX2 analytically  !
 ! D3    D(2,1,5,8)            -56.3582         calculate D2E/DX2 analytically  !
 ! D4    D(3,1,5,6)           -175.5755         calculate D2E/DX2 analytically  !
 ! D5    D(3,1,5,7)            -59.1839         calculate D2E/DX2 analytically  !
 ! D6    D(3,1,5,8)             62.9532         calculate D2E/DX2 analytically  !
 ! D7    D(4,1,5,6)            -55.552          calculate D2E/DX2 analytically  !
 ! D8    D(4,1,5,7)             60.8396         calculate D2E/DX2 analytically  !
 ! D9    D(4,1,5,8)           -177.0232         calculate D2E/DX2 analytically  !
 ! D10   D(1,5,8,9)            -56.5169         calculate D2E/DX2 analytically  !
 ! D11   D(1,5,8,10)          -177.29           calculate D2E/DX2 analytically  !
 ! D12   D(1,5,8,14)            57.3431         calculate D2E/DX2 analytically  !
 ! D13   D(6,5,8,9)           -178.8147         calculate D2E/DX2 analytically  !
 ! D14   D(6,5,8,10)            60.4121         calculate D2E/DX2 analytically  !
 ! D15   D(6,5,8,14)           -64.9547         calculate D2E/DX2 analytically  !
 ! D16   D(7,5,8,9)             66.3733         calculate D2E/DX2 analytically  !
 ! D17   D(7,5,8,10)           -54.3999         calculate D2E/DX2 analytically  !
 ! D18   D(7,5,8,14)          -179.7667         calculate D2E/DX2 analytically  !
 ! D19   D(5,8,10,11)           60.2787         calculate D2E/DX2 analytically  !
 ! D20   D(5,8,10,12)         -179.071          calculate D2E/DX2 analytically  !
 ! D21   D(5,8,10,13)          -59.3834         calculate D2E/DX2 analytically  !
 ! D22   D(9,8,10,11)          -60.323          calculate D2E/DX2 analytically  !
 ! D23   D(9,8,10,12)           60.3274         calculate D2E/DX2 analytically  !
 ! D24   D(9,8,10,13)         -179.9851         calculate D2E/DX2 analytically  !
 ! D25   D(14,8,10,11)        -174.0429         calculate D2E/DX2 analytically  !
 ! D26   D(14,8,10,12)         -53.3925         calculate D2E/DX2 analytically  !
 ! D27   D(14,8,10,13)          66.295          calculate D2E/DX2 analytically  !
 ! D28   D(5,8,14,15)           64.6616         calculate D2E/DX2 analytically  !
 ! D29   D(9,8,14,15)         -178.5119         calculate D2E/DX2 analytically  !
 ! D30   D(10,8,14,15)         -61.6066         calculate D2E/DX2 analytically  !
 --------------------------------------------------------------------------------
 Trust Radius=3.00D-01 FncErr=1.00D-07 GrdErr=1.00D-06
 Number of steps in this run=  79 maximum allowed number of steps= 100.
 GradGradGradGradGradGradGradGradGradGradGradGradGradGradGradGradGradGrad

                          Input orientation:                          
 ---------------------------------------------------------------------
 Center     Atomic     Atomic              Coordinates (Angstroms)
 Number     Number      Type              X           Y           Z
 ---------------------------------------------------------------------
    1          6             0        0.000000    0.000000    0.000000
    2          1             0        0.000000    0.000000    1.094156
    3          1             0        1.045850    0.000000   -0.330922
    4          1             0       -0.460301    0.931689   -0.347208
    5          6             0       -0.745967   -1.223495   -0.538713
    6          1             0       -1.810921   -1.164749   -0.262473
    7          1             0       -0.718245   -1.230061   -1.637100
    8          6             0       -0.183760   -2.556074   -0.021996
    9          1             0        0.882666   -2.609665   -0.276366
   10          6             0       -0.899747   -3.767316   -0.622981
   11          1             0       -0.803001   -3.787876   -1.714825
   12          1             0       -0.482840   -4.695213   -0.218905
   13          1             0       -1.972418   -3.742388   -0.385371
   14          8             0       -0.198075   -2.611848    1.408806
   15          1             0       -1.129210   -2.591388    1.685198
 ---------------------------------------------------------------------
                    Distance matrix (angstroms):
                    1          2          3          4          5
     1  C    0.000000
     2  H    1.094156   0.000000
     3  H    1.096956   1.767668   0.000000
     4  H    1.095662   1.776922   1.771101   0.000000
     5  C    1.530888   2.172480   2.179616   2.182452   0.000000
     6  H    2.169094   2.544900   3.085849   2.495277   1.101765
     7  H    2.170028   3.080371   2.516184   2.530518   1.098756
     8  C    2.562765   2.795188   2.853225   3.513791   1.535852
     9  H    2.768723   3.076976   2.615331   3.788109   2.154702
    10  C    3.923050   4.236835   4.250096   4.727559   2.549858
    11  H    4.234789   4.783638   4.436377   4.925659   2.821798
    12  H    4.725048   4.899213   4.939075   5.628410   3.496332
    13  H    4.247871   4.481618   4.808157   4.912733   2.805801
    14  O    2.974175   2.638179   3.375760   3.963458   2.453679
    15  H    3.290942   2.887860   3.938390   4.121915   2.638899
                    6          7          8          9         10
     6  H    0.000000
     7  H    1.757215   0.000000
     8  C    2.154360   2.156976   0.000000
     9  H    3.056695   2.513527   1.097652   0.000000
    10  C    2.780928   2.738438   1.530009   2.153438   0.000000
    11  H    3.163230   2.560399   2.183224   2.509745   1.096315
    12  H    3.772250   3.751529   2.168902   2.493475   1.094569
    13  H    2.585616   3.074339   2.176851   3.073507   1.098955
    14  O    2.736520   3.384886   1.431960   2.001952   2.440412
    15  H    2.508675   3.613830   1.951828   2.809931   2.600606
                   11         12         13         14         15
    11  H    0.000000
    12  H    1.778634   0.000000
    13  H    1.771173   1.776071   0.000000
    14  O    3.392057   2.659125   2.765047   0.000000
    15  H    3.619137   2.910237   2.514569   0.971506   0.000000
 Stoichiometry    C4H10O
 Framework group  C1[X(C4H10O)]
 Deg. of freedom    39
 Full point group                 C1
 Largest Abelian subgroup         C1      NOp   1
 Largest concise Abelian subgroup C1      NOp   1
                         Standard orientation:                         
 ---------------------------------------------------------------------
 Center     Atomic     Atomic              Coordinates (Angstroms)
 Number     Number      Type              X           Y           Z
 ---------------------------------------------------------------------
    1          6             0       -2.067664   -0.047858   -0.101373
    2          1             0       -2.084138    1.005760    0.193237
    3          1             0       -2.237223   -0.091367   -1.184272
    4          1             0       -2.904134   -0.558499    0.388566
    5          6             0       -0.728864   -0.690386    0.270636
    6          1             0       -0.613210   -0.708040    1.366172
    7          1             0       -0.710480   -1.740396   -0.052484
    8          6             0        0.483267    0.034044   -0.333332
    9          1             0        0.361956    0.072840   -1.423570
   10          6             0        1.805922   -0.661287   -0.004657
   11          1             0        1.826484   -1.686008   -0.393798
   12          1             0        2.645038   -0.107526   -0.437456
   13          1             0        1.956785   -0.716167    1.082509
   14          8             0        0.519099    1.411373    0.056782
   15          1             0        0.650163    1.431340    1.019199
 ---------------------------------------------------------------------
 Rotational constants (GHZ):      7.9552264      3.4124206      2.6506019
 Standard basis: CBSB7 (5D, 7F)
 There are   150 symmetry adapted basis functions of A   symmetry.
 Integral buffers will be    131072 words long.
 Raffenetti 2 integral format.
 Two-electron integral symmetry is turned on.
   150 basis functions,   240 primitive gaussians,   155 cartesian basis functions
    21 alpha electrons       21 beta electrons
       nuclear repulsion energy       192.7106670403 Hartrees.
 NAtoms=   15 NActive=   15 NUniq=   15 SFac= 7.50D-01 NAtFMM=   80 NAOKFM=F Big=F
 One-electron integrals computed using PRISM.
 NBasis=   150 RedAO= T  NBF=   150
 NBsUse=   150 1.00D-06 NBFU=   150
 Harris functional with IExCor=  402 diagonalized for initial guess.
 ExpMin= 1.03D-01 ExpMax= 8.59D+03 ExpMxC= 1.30D+03 IAcc=1 IRadAn=         1 AccDes= 1.00D-06
 HarFok:  IExCor= 402 AccDes= 1.00D-06 IRadAn=         1 IDoV=1
 ScaDFX=  1.000000  1.000000  1.000000  1.000000
 Initial guess orbital symmetries:
       Occupied  (A) (A) (A) (A) (A) (A) (A) (A) (A) (A) (A) (A)
                 (A) (A) (A) (A) (A) (A) (A) (A) (A)
       Virtual   (A) (A) (A) (A) (A) (A) (A) (A) (A) (A) (A) (A)
                 (A) (A) (A) (A) (A) (A) (A) (A) (A) (A) (A) (A)
                 (A) (A) (A) (A) (A) (A) (A) (A) (A) (A) (A) (A)
                 (A) (A) (A) (A) (A) (A) (A) (A) (A) (A) (A) (A)
                 (A) (A) (A) (A) (A) (A) (A) (A) (A) (A) (A) (A)
                 (A) (A) (A) (A) (A) (A) (A) (A) (A) (A) (A) (A)
                 (A) (A) (A) (A) (A) (A) (A) (A) (A) (A) (A) (A)
                 (A) (A) (A) (A) (A) (A) (A) (A) (A) (A) (A) (A)
                 (A) (A) (A) (A) (A) (A) (A) (A) (A) (A) (A) (A)
                 (A) (A) (A) (A) (A) (A) (A) (A) (A) (A) (A) (A)
                 (A) (A) (A) (A) (A) (A) (A) (A) (A)
 The electronic state of the initial guess is 1-A.
 Requested convergence on RMS density matrix=1.00D-08 within 128 cycles.
 Requested convergence on MAX density matrix=1.00D-06.
 Requested convergence on             energy=1.00D-06.
 No special actions if energy rises.
 Keep R1 integrals in memory in canonical form, NReq=    76038014.
 Integral accuracy reduced to 1.0D-05 until final iterations.
 Initial convergence to 1.0D-05 achieved.  Increase integral accuracy.
 SCF Done:  E(RB+HF-LYP) =  -233.742938159     A.U. after   12 cycles
             Convg  =    0.6587D-08             -V/T =  2.0045
             S**2   =   0.0000
 Range of M.O.s used for correlation:     1   150
 NBasis=   150 NAE=    21 NBE=    21 NFC=     0 NFV=     0
 NROrb=    150 NOA=    21 NOB=    21 NVA=   129 NVB=   129
 Symmetrizing basis deriv contribution to polar:
 IMax=3 JMax=2 DiffMx= 0.00D+00
 G2DrvN: will do   16 centers at a time, making    1 passes doing MaxLOS=2.
 FoFDir/FoFCou used for L=0 through L=2.
 DoAtom=TTTTTTTTTTTTTTT
          Differentiating once with respect to electric field.
                with respect to dipole field.
          Differentiating once with respect to nuclear coordinates.
          Store integrals in memory, NReq=    73914613.
          There are  48 degrees of freedom in the 1st order CPHF.
    45 vectors were produced by pass  0.
 AX will form  45 AO Fock derivatives at one time.
    45 vectors were produced by pass  1.
    45 vectors were produced by pass  2.
    45 vectors were produced by pass  3.
    12 vectors were produced by pass  4.
     3 vectors were produced by pass  5.
 Inv2:  IOpt= 1 Iter= 1 AM= 2.24D-15 Conv= 1.00D-12.
 Inverted reduced A of dimension  195 with in-core refinement.
 Isotropic polarizability for W=    0.000000       52.16 Bohr**3.
 End of Minotr Frequency-dependent properties file   721 does not exist.

 **********************************************************************

            Population analysis using the SCF density.

 **********************************************************************

 Orbital symmetries:
       Occupied  (A) (A) (A) (A) (A) (A) (A) (A) (A) (A) (A) (A)
                 (A) (A) (A) (A) (A) (A) (A) (A) (A)
       Virtual   (A) (A) (A) (A) (A) (A) (A) (A) (A) (A) (A) (A)
                 (A) (A) (A) (A) (A) (A) (A) (A) (A) (A) (A) (A)
                 (A) (A) (A) (A) (A) (A) (A) (A) (A) (A) (A) (A)
                 (A) (A) (A) (A) (A) (A) (A) (A) (A) (A) (A) (A)
                 (A) (A) (A) (A) (A) (A) (A) (A) (A) (A) (A) (A)
                 (A) (A) (A) (A) (A) (A) (A) (A) (A) (A) (A) (A)
                 (A) (A) (A) (A) (A) (A) (A) (A) (A) (A) (A) (A)
                 (A) (A) (A) (A) (A) (A) (A) (A) (A) (A) (A) (A)
                 (A) (A) (A) (A) (A) (A) (A) (A) (A) (A) (A) (A)
                 (A) (A) (A) (A) (A) (A) (A) (A) (A) (A) (A) (A)
                 (A) (A) (A) (A) (A) (A) (A) (A) (A)
 The electronic state is 1-A.
 Alpha  occ. eigenvalues --  -19.11042 -10.21946 -10.16856 -10.16260 -10.15604
 Alpha  occ. eigenvalues --   -1.01662  -0.78553  -0.72851  -0.63675  -0.59461
 Alpha  occ. eigenvalues --   -0.47815  -0.47122  -0.44502  -0.42217  -0.40969
 Alpha  occ. eigenvalues --   -0.37245  -0.37027  -0.34940  -0.34120  -0.31747
 Alpha  occ. eigenvalues --   -0.27156
 Alpha virt. eigenvalues --    0.03280   0.06000   0.06654   0.08387   0.09969
 Alpha virt. eigenvalues --    0.11547   0.12077   0.13064   0.13451   0.15460
 Alpha virt. eigenvalues --    0.20128   0.21121   0.21839   0.23136   0.29701
 Alpha virt. eigenvalues --    0.30435   0.31593   0.32936   0.38906   0.40006
 Alpha virt. eigenvalues --    0.40620   0.43594   0.48232   0.52583   0.54589
 Alpha virt. eigenvalues --    0.55497   0.56994   0.58091   0.58544   0.58942
 Alpha virt. eigenvalues --    0.59490   0.61076   0.61347   0.62298   0.63351
 Alpha virt. eigenvalues --    0.65528   0.72753   0.80182   0.86865   0.88672
 Alpha virt. eigenvalues --    0.91648   0.97387   0.99620   1.02317   1.10220
 Alpha virt. eigenvalues --    1.15857   1.20031   1.24311   1.29526   1.30070
 Alpha virt. eigenvalues --    1.39993   1.40936   1.43807   1.45451   1.46469
 Alpha virt. eigenvalues --    1.47105   1.48935   1.50428   1.51548   1.53143
 Alpha virt. eigenvalues --    1.56092   1.58215   1.60255   1.64022   1.65556
 Alpha virt. eigenvalues --    1.69798   1.72887   1.75101   1.75790   1.79025
 Alpha virt. eigenvalues --    1.81395   1.88224   1.90541   1.95070   1.97578
 Alpha virt. eigenvalues --    1.99972   2.04558   2.07960   2.11907   2.13552
 Alpha virt. eigenvalues --    2.15888   2.22884   2.29490   2.33502   2.34578
 Alpha virt. eigenvalues --    2.36820   2.39486   2.42754   2.45166   2.48392
 Alpha virt. eigenvalues --    2.49027   2.50650   2.50991   2.54537   2.56262
 Alpha virt. eigenvalues --    2.58160   2.60594   2.62995   2.64697   2.68365
 Alpha virt. eigenvalues --    2.73585   2.76827   2.83777   2.87492   2.93908
 Alpha virt. eigenvalues --    2.98015   3.12734   3.15700   3.19815   3.28288
 Alpha virt. eigenvalues --    3.46146   3.70122   3.76072   3.79149   3.79841
 Alpha virt. eigenvalues --    3.80897   3.82313   3.92783   4.08809   4.19234
 Alpha virt. eigenvalues --    4.31256   4.93023   5.25105   5.61125  23.75245
 Alpha virt. eigenvalues --   23.84712  23.90793  23.93723  49.89492
          Condensed to atoms (all electrons):
              1          2          3          4          5          6
     1  C    4.863582   0.400611   0.403121   0.402499   0.351659  -0.042662
     2  H    0.400611   0.574920  -0.030533  -0.028882  -0.039637  -0.006332
     3  H    0.403121  -0.030533   0.592066  -0.030678  -0.035716   0.009159
     4  H    0.402499  -0.028882  -0.030678   0.589144  -0.031481  -0.006781
     5  C    0.351659  -0.039637  -0.035716  -0.031481   5.025247   0.391122
     6  H   -0.042662  -0.006332   0.009159  -0.006781   0.391122   0.625110
     7  H   -0.033490   0.009893  -0.007720  -0.005075   0.379592  -0.032620
     8  C   -0.058945  -0.010586  -0.004933   0.007684   0.360313  -0.038221
     9  H   -0.007445  -0.001255   0.005343  -0.000170  -0.051889   0.010332
    10  C    0.009031   0.000949  -0.000125  -0.000371  -0.072493  -0.009065
    11  H   -0.000474  -0.000175   0.000023  -0.000012   0.001021   0.000206
    12  H   -0.000445  -0.000076  -0.000008   0.000027   0.010638  -0.000700
    13  H   -0.000293  -0.000093   0.000040  -0.000005  -0.010404   0.006850
    14  O   -0.005213   0.021628  -0.000738  -0.000107  -0.050792  -0.001891
    15  H   -0.000968  -0.000663   0.000059  -0.000047  -0.003513   0.006817
              7          8          9         10         11         12
     1  C   -0.033490  -0.058945  -0.007445   0.009031  -0.000474  -0.000445
     2  H    0.009893  -0.010586  -0.001255   0.000949  -0.000175  -0.000076
     3  H   -0.007720  -0.004933   0.005343  -0.000125   0.000023  -0.000008
     4  H   -0.005075   0.007684  -0.000170  -0.000371  -0.000012   0.000027
     5  C    0.379592   0.360313  -0.051889  -0.072493   0.001021   0.010638
     6  H   -0.032620  -0.038221   0.010332  -0.009065   0.000206  -0.000700
     7  H    0.618153  -0.032304  -0.002416  -0.002059   0.000569  -0.000625
     8  C   -0.032304   4.869238   0.388488   0.386926  -0.033535  -0.034390
     9  H   -0.002416   0.388488   0.619731  -0.043227  -0.002573  -0.009567
    10  C   -0.002059   0.386926  -0.043227   4.873222   0.382872   0.400248
    11  H    0.000569  -0.033535  -0.002573   0.382872   0.596741  -0.023408
    12  H   -0.000625  -0.034390  -0.009567   0.400248  -0.023408   0.568915
    13  H    0.000087  -0.033939   0.009512   0.390932  -0.027404  -0.032831
    14  O    0.005223   0.273720  -0.033724  -0.042230   0.004998   0.006596
    15  H   -0.000244  -0.058404   0.010817  -0.003996  -0.000148  -0.001279
             13         14         15
     1  C   -0.000293  -0.005213  -0.000968
     2  H   -0.000093   0.021628  -0.000663
     3  H    0.000040  -0.000738   0.000059
     4  H   -0.000005  -0.000107  -0.000047
     5  C   -0.010404  -0.050792  -0.003513
     6  H    0.006850  -0.001891   0.006817
     7  H    0.000087   0.005223  -0.000244
     8  C   -0.033939   0.273720  -0.058404
     9  H    0.009512  -0.033724   0.010817
    10  C    0.390932  -0.042230  -0.003996
    11  H   -0.027404   0.004998  -0.000148
    12  H   -0.032831   0.006596  -0.001279
    13  H    0.605570  -0.001342   0.006578
    14  O   -0.001342   7.903398   0.308748
    15  H    0.006578   0.308748   0.511837
 Mulliken atomic charges:
              1
     1  C   -0.280568
     2  H    0.110232
     3  H    0.100641
     4  H    0.104256
     5  C   -0.223669
     6  H    0.088676
     7  H    0.103037
     8  C    0.018889
     9  H    0.108042
    10  C   -0.270613
    11  H    0.101299
    12  H    0.116906
    13  H    0.086741
    14  O   -0.388276
    15  H    0.224408
 Sum of Mulliken charges=   0.00000
 Atomic charges with hydrogens summed into heavy atoms:
              1
     1  C    0.034561
     2  H    0.000000
     3  H    0.000000
     4  H    0.000000
     5  C   -0.031956
     6  H    0.000000
     7  H    0.000000
     8  C    0.126930
     9  H    0.000000
    10  C    0.034332
    11  H    0.000000
    12  H    0.000000
    13  H    0.000000
    14  O   -0.163868
    15  H    0.000000
 Sum of Mulliken charges=   0.00000
 APT atomic charges:
              1
     1  C    0.063781
     2  H    0.000960
     3  H   -0.025655
     4  H   -0.033435
     5  C    0.065102
     6  H   -0.056437
     7  H   -0.043077
     8  C    0.505132
     9  H   -0.057624
    10  C    0.013057
    11  H   -0.015056
    12  H   -0.019593
    13  H   -0.027122
    14  O   -0.604548
    15  H    0.234514
 Sum of APT charges=   0.00000
 APT Atomic charges with hydrogens summed into heavy atoms:
              1
     1  C    0.005651
     2  H    0.000000
     3  H    0.000000
     4  H    0.000000
     5  C   -0.034411
     6  H    0.000000
     7  H    0.000000
     8  C    0.447508
     9  H    0.000000
    10  C   -0.048714
    11  H    0.000000
    12  H    0.000000
    13  H    0.000000
    14  O   -0.370034
    15  H    0.000000
 Sum of APT charges=   0.00000
 Electronic spatial extent (au):  <R**2>=   526.4412
 Charge=     0.0000 electrons
 Dipole moment (field-independent basis, Debye):
    X=     0.1685    Y=    -1.2577    Z=     0.9188  Tot=     1.5667
 Quadrupole moment (field-independent basis, Debye-Ang):
   XX=   -34.0759   YY=   -36.0846   ZZ=   -31.2606
   XY=    -0.2190   XZ=     0.6454   YZ=     2.3762
 Traceless Quadrupole moment (field-independent basis, Debye-Ang):
   XX=    -0.2689   YY=    -2.2776   ZZ=     2.5465
   XY=    -0.2190   XZ=     0.6454   YZ=     2.3762
 Octapole moment (field-independent basis, Debye-Ang**2):
  XXX=     3.3908  YYY=     1.8346  ZZZ=     1.8136  XYY=    -0.1196
  XXY=     2.0026  XXZ=     0.5157  XZZ=     2.2681  YZZ=     5.0963
  YYZ=     3.2090  XYZ=     1.5934
 Hexadecapole moment (field-independent basis, Debye-Ang**3):
 XXXX=  -469.3076 YYYY=  -179.4033 ZZZZ=   -71.8629 XXXY=     8.4638
 XXXZ=    -3.8959 YYYX=     0.9572 YYYZ=     9.8976 ZZZX=     3.4360
 ZZZY=     4.2036 XXYY=  -107.9653 XXZZ=   -89.0026 YYZZ=   -38.8874
 XXYZ=     0.7514 YYXZ=     1.3783 ZZXY=     3.4300
 N-N= 1.927106670403D+02 E-N=-9.301213803853D+02  KE= 2.327014764052D+02
  Exact polarizability:  57.808  -1.007  49.704   0.455   0.636  48.977
 Approx polarizability:  66.886   0.053  69.966   0.719   1.210  71.558
 ***** Axes restored to original set *****
 -------------------------------------------------------------------
 Center     Atomic                   Forces (Hartrees/Bohr)
 Number     Number              X              Y              Z
 -------------------------------------------------------------------
    1          6           0.000499924    0.000965754    0.000308264
    2          1           0.000025981    0.000006991   -0.001662397
    3          1          -0.001542501    0.000002132    0.000431350
    4          1           0.000697059   -0.001369922    0.000618312
    5          6          -0.000825541   -0.000175322   -0.000487445
    6          1           0.001566673   -0.000158033   -0.000226338
    7          1           0.000122279   -0.000030706    0.001574723
    8          6           0.000963063   -0.000462826   -0.001720043
    9          1          -0.001429884    0.000113766    0.000200104
   10          6          -0.000477090   -0.000634894   -0.000422107
   11          1           0.000015654    0.000043724    0.001522147
   12          1          -0.000586032    0.001548407   -0.000470869
   13          1           0.001645186    0.000025421   -0.000165228
   14          8          -0.007681859    0.000335139    0.001889712
   15          1           0.007007086   -0.000209630   -0.001390183
 -------------------------------------------------------------------
 Cartesian Forces:  Max     0.007681859 RMS     0.001789609

 GradGradGradGradGradGradGradGradGradGradGradGradGradGradGradGradGradGrad
 Berny optimization.
 Internal  Forces:  Max     0.007113293 RMS     0.001069379
 Search for a local minimum.
 Step number   1 out of a maximum of  79
 All quantities printed in internal units (Hartrees-Bohrs-Radians)
 Second derivative matrix not updated -- analytic derivatives used.
     Eigenvalues ---    0.00210   0.00251   0.00351   0.00384   0.03365
     Eigenvalues ---    0.03867   0.04023   0.04458   0.04467   0.04555
     Eigenvalues ---    0.04574   0.05506   0.06643   0.07106   0.10290
     Eigenvalues ---    0.12059   0.12099   0.12604   0.13800   0.13833
     Eigenvalues ---    0.15676   0.16165   0.18713   0.19261   0.21329
     Eigenvalues ---    0.26754   0.27987   0.30090   0.31337   0.31619
     Eigenvalues ---    0.32313   0.32514   0.32603   0.32995   0.33110
     Eigenvalues ---    0.33662   0.33903   0.35937   0.493421000.00000
     Eigenvalues --- 1000.000001000.000001000.000001000.000001000.00000
     Eigenvalues --- 1000.000001000.000001000.000001000.000001000.00000
     Eigenvalues --- 1000.000001000.000001000.000001000.000001000.00000
     Eigenvalues --- 1000.000001000.000001000.000001000.000001000.00000
     Eigenvalues --- 1000.000001000.000001000.000001000.000001000.00000
     Eigenvalues --- 1000.000001000.000001000.000001000.00000
 RFO step:  Lambda=-2.05901060D-04.
 Linear search not attempted -- first point.
 Iteration  1 RMS(Cart)=  0.00920906 RMS(Int)=  0.00005643
 Iteration  2 RMS(Cart)=  0.00006067 RMS(Int)=  0.00000079
 Iteration  3 RMS(Cart)=  0.00000000 RMS(Int)=  0.00000079
 Variable       Old X    -DE/DX   Delta X   Delta X   Delta X     New X
                                 (Linear)    (Quad)   (Total)
    R1        2.06766  -0.00166   0.00000  -0.00481  -0.00481   2.06284
    R2        2.07295  -0.00160   0.00000  -0.00480  -0.00480   2.06815
    R3        2.07050  -0.00165   0.00000  -0.00491  -0.00491   2.06559
    R4        2.89296  -0.00058   0.00000  -0.00145  -0.00145   2.89151
    R5        2.08203  -0.00158   0.00000  -0.00503  -0.00503   2.07700
    R6        2.07635  -0.00157   0.00000  -0.00469  -0.00469   2.07166
    R7        2.90234  -0.00105   0.00000  -0.00347  -0.00347   2.89887
    R8        2.07426  -0.00144   0.00000  -0.00455  -0.00455   2.06972
    R9        2.89130  -0.00124   0.00000  -0.00412  -0.00412   2.88718
   R10        2.70601   0.00050   0.00000   0.00206   0.00206   2.70807
   R11        2.07173  -0.00151   0.00000  -0.00461  -0.00461   2.06713
   R12        2.06844  -0.00171   0.00000  -0.00497  -0.00497   2.06347
   R13        2.07672  -0.00164   0.00000  -0.00510  -0.00510   2.07162
   R14        1.83588  -0.00711   0.00000  -0.01475  -0.01475   1.82113
    A1        1.87724   0.00001   0.00000   0.00074   0.00074   1.87798
    A2        1.89325  -0.00006   0.00000  -0.00041  -0.00041   1.89284
    A3        1.93039   0.00001   0.00000  -0.00078  -0.00078   1.92961
    A4        1.88067  -0.00001   0.00000   0.00007   0.00007   1.88075
    A5        1.93737  -0.00005   0.00000  -0.00026  -0.00026   1.93711
    A6        1.94268   0.00010   0.00000   0.00065   0.00065   1.94334
    A7        1.91788  -0.00001   0.00000   0.00010   0.00010   1.91797
    A8        1.92225  -0.00011   0.00000  -0.00069  -0.00069   1.92155
    A9        1.97868   0.00022   0.00000   0.00042   0.00042   1.97910
   A10        1.84975   0.00012   0.00000   0.00202   0.00202   1.85176
   A11        1.89203  -0.00018   0.00000  -0.00188  -0.00188   1.89015
   A12        1.89854  -0.00006   0.00000   0.00013   0.00013   1.89867
   A13        1.89657  -0.00006   0.00000   0.00067   0.00067   1.89723
   A14        1.96430   0.00029   0.00000   0.00202   0.00202   1.96632
   A15        1.94583  -0.00028   0.00000  -0.00274  -0.00274   1.94308
   A16        1.90178  -0.00010   0.00000   0.00054   0.00053   1.90231
   A17        1.81251   0.00017   0.00000   0.00035   0.00036   1.81286
   A18        1.93582  -0.00003   0.00000  -0.00087  -0.00087   1.93495
   A19        1.94416  -0.00003   0.00000   0.00002   0.00002   1.94417
   A20        1.92609  -0.00025   0.00000  -0.00275  -0.00275   1.92333
   A21        1.93252  -0.00015   0.00000  -0.00060  -0.00060   1.93192
   A22        1.89457   0.00013   0.00000   0.00071   0.00071   1.89528
   A23        1.87748   0.00019   0.00000   0.00263   0.00263   1.88010
   A24        1.88724   0.00012   0.00000   0.00015   0.00015   1.88739
   A25        1.86819   0.00121   0.00000   0.00741   0.00741   1.87560
    D1        1.13644  -0.00002   0.00000   0.01117   0.01117   1.14761
    D2       -3.11533   0.00006   0.00000   0.01328   0.01328  -3.10205
    D3       -0.98364   0.00006   0.00000   0.01323   0.01323  -0.97040
    D4       -3.06437  -0.00003   0.00000   0.01142   0.01142  -3.05295
    D5       -1.03295   0.00005   0.00000   0.01353   0.01353  -1.01943
    D6        1.09874   0.00005   0.00000   0.01348   0.01348   1.11223
    D7       -0.96957  -0.00002   0.00000   0.01178   0.01178  -0.95779
    D8        1.06185   0.00007   0.00000   0.01388   0.01388   1.07573
    D9       -3.08964   0.00006   0.00000   0.01384   0.01384  -3.07580
   D10       -0.98641   0.00004   0.00000   0.01035   0.01036  -0.97605
   D11       -3.09429   0.00002   0.00000   0.00793   0.00793  -3.08637
   D12        1.00083   0.00006   0.00000   0.00968   0.00968   1.01051
   D13       -3.12091   0.00003   0.00000   0.01130   0.01131  -3.10960
   D14        1.05439   0.00001   0.00000   0.00888   0.00888   1.06327
   D15       -1.13367   0.00005   0.00000   0.01063   0.01063  -1.12304
   D16        1.15843   0.00001   0.00000   0.00985   0.00985   1.16828
   D17       -0.94946  -0.00001   0.00000   0.00742   0.00742  -0.94203
   D18       -3.13752   0.00003   0.00000   0.00918   0.00918  -3.12835
   D19        1.05206   0.00013   0.00000   0.00929   0.00929   1.06135
   D20       -3.12538   0.00012   0.00000   0.00834   0.00834  -3.11704
   D21       -1.03644   0.00001   0.00000   0.00637   0.00637  -1.03006
   D22       -1.05283   0.00009   0.00000   0.00678   0.00678  -1.04606
   D23        1.05291   0.00007   0.00000   0.00583   0.00583   1.05874
   D24       -3.14133  -0.00004   0.00000   0.00386   0.00386  -3.13748
   D25       -3.03762  -0.00004   0.00000   0.00652   0.00652  -3.03110
   D26       -0.93187  -0.00006   0.00000   0.00557   0.00557  -0.92631
   D27        1.15707  -0.00017   0.00000   0.00360   0.00360   1.16067
   D28        1.12856   0.00010   0.00000   0.00404   0.00404   1.13260
   D29       -3.11562  -0.00001   0.00000   0.00372   0.00372  -3.11190
   D30       -1.07524  -0.00004   0.00000   0.00414   0.00413  -1.07110
         Item               Value     Threshold  Converged?
 Maximum Force            0.007113     0.000450     NO 
 RMS     Force            0.001069     0.000300     NO 
 Maximum Displacement     0.033020     0.001800     NO 
 RMS     Displacement     0.009203     0.001200     NO 
 Predicted change in Energy=-1.032911D-04
 GradGradGradGradGradGradGradGradGradGradGradGradGradGradGradGradGradGrad

                          Input orientation:                          
 ---------------------------------------------------------------------
 Center     Atomic     Atomic              Coordinates (Angstroms)
 Number     Number      Type              X           Y           Z
 ---------------------------------------------------------------------
    1          6             0        0.002301   -0.001298   -0.002917
    2          1             0        0.017473   -0.007712    1.088569
    3          1             0        1.040783    0.003261   -0.348291
    4          1             0       -0.464236    0.929047   -0.336969
    5          6             0       -0.747549   -1.223459   -0.537063
    6          1             0       -1.808387   -1.163687   -0.255854
    7          1             0       -0.723542   -1.230794   -1.633052
    8          6             0       -0.187005   -2.555167   -0.021745
    9          1             0        0.878520   -2.607207   -0.269766
   10          6             0       -0.897652   -3.765754   -0.624836
   11          1             0       -0.789729   -3.790527   -1.713093
   12          1             0       -0.484988   -4.689014   -0.212966
   13          1             0       -1.969498   -3.739232   -0.396316
   14          8             0       -0.209557   -2.611076    1.410037
   15          1             0       -1.132904   -2.595765    1.685562
 ---------------------------------------------------------------------
                    Distance matrix (angstroms):
                    1          2          3          4          5
     1  C    0.000000
     2  H    1.091610   0.000000
     3  H    1.094418   1.764044   0.000000
     4  H    1.093064   1.772489   1.767001   0.000000
     5  C    1.530119   2.169326   2.176835   2.180272   0.000000
     6  H    2.166498   2.545096   3.080273   2.488545   1.099103
     7  H    2.166991   3.074451   2.507259   2.532190   1.096277
     8  C    2.560945   2.786420   2.856510   3.509412   1.534017
     9  H    2.762196   3.056771   2.616684   3.783200   2.151814
    10  C    3.920182   4.230377   4.247291   4.723545   2.548234
    11  H    4.232052   4.776041   4.427898   4.926869   2.823944
    12  H    4.717653   4.884777   4.935963   5.619467   3.490565
    13  H    4.244397   4.480756   4.803161   4.905320   2.800371
    14  O    2.975275   2.632943   3.389665   3.955928   2.450737
    15  H    3.297106   2.894441   3.951761   4.118500   2.640413
                    6          7          8          9         10
     6  H    0.000000
     7  H    1.754442   0.000000
     8  C    2.149396   2.153636   0.000000
     9  H    3.050149   2.513894   1.095247   0.000000
    10  C    2.781427   2.733649   1.527828   2.150138   0.000000
    11  H    3.171986   2.561839   2.179460   2.503296   1.093876
    12  H    3.765786   3.746043   2.163021   2.489237   1.091942
    13  H    2.584399   3.061729   2.172463   3.067361   1.096256
    14  O    2.725139   3.380791   1.433050   2.001416   2.438742
    15  H    2.505238   3.611638   1.952248   2.805222   2.600415
                   11         12         13         14         15
    11  H    0.000000
    12  H    1.774972   0.000000
    13  H    1.768724   1.771855   0.000000
    14  O    3.388457   2.651005   2.762795   0.000000
    15  H    3.618851   2.899293   2.518258   0.963701   0.000000
 Stoichiometry    C4H10O
 Framework group  C1[X(C4H10O)]
 Deg. of freedom    39
 Full point group                 C1
 Largest Abelian subgroup         C1      NOp   1
 Largest concise Abelian subgroup C1      NOp   1
                         Standard orientation:                         
 ---------------------------------------------------------------------
 Center     Atomic     Atomic              Coordinates (Angstroms)
 Number     Number      Type              X           Y           Z
 ---------------------------------------------------------------------
    1          6             0       -2.066926   -0.048390   -0.104119
    2          1             0       -2.078486    1.008782    0.167662
    3          1             0       -2.240620   -0.114732   -1.182627
    4          1             0       -2.901129   -0.544100    0.399038
    5          6             0       -0.728990   -0.686254    0.275778
    6          1             0       -0.614062   -0.691257    1.368845
    7          1             0       -0.710380   -1.736904   -0.036648
    8          6             0        0.482555    0.031562   -0.332586
    9          1             0        0.358752    0.069341   -1.420157
   10          6             0        1.803479   -0.663392   -0.006312
   11          1             0        1.825105   -1.683999   -0.399324
   12          1             0        2.638633   -0.106879   -0.436598
   13          1             0        1.953769   -0.720142    1.078110
   14          8             0        0.521324    1.410144    0.056827
   15          1             0        0.657115    1.437576    1.010518
 ---------------------------------------------------------------------
 Rotational constants (GHZ):      7.9692542      3.4165492      2.6547187
 Standard basis: CBSB7 (5D, 7F)
 There are   150 symmetry adapted basis functions of A   symmetry.
 Integral buffers will be    131072 words long.
 Raffenetti 2 integral format.
 Two-electron integral symmetry is turned on.
   150 basis functions,   240 primitive gaussians,   155 cartesian basis functions
    21 alpha electrons       21 beta electrons
       nuclear repulsion energy       192.9302726169 Hartrees.
 NAtoms=   15 NActive=   15 NUniq=   15 SFac= 7.50D-01 NAtFMM=   80 NAOKFM=F Big=F
 One-electron integrals computed using PRISM.
 NBasis=   150 RedAO= T  NBF=   150
 NBsUse=   150 1.00D-06 NBFU=   150
 Initial guess read from the read-write file:
 Initial guess orbital symmetries:
       Occupied  (A) (A) (A) (A) (A) (A) (A) (A) (A) (A) (A) (A)
                 (A) (A) (A) (A) (A) (A) (A) (A) (A)
       Virtual   (A) (A) (A) (A) (A) (A) (A) (A) (A) (A) (A) (A)
                 (A) (A) (A) (A) (A) (A) (A) (A) (A) (A) (A) (A)
                 (A) (A) (A) (A) (A) (A) (A) (A) (A) (A) (A) (A)
                 (A) (A) (A) (A) (A) (A) (A) (A) (A) (A) (A) (A)
                 (A) (A) (A) (A) (A) (A) (A) (A) (A) (A) (A) (A)
                 (A) (A) (A) (A) (A) (A) (A) (A) (A) (A) (A) (A)
                 (A) (A) (A) (A) (A) (A) (A) (A) (A) (A) (A) (A)
                 (A) (A) (A) (A) (A) (A) (A) (A) (A) (A) (A) (A)
                 (A) (A) (A) (A) (A) (A) (A) (A) (A) (A) (A) (A)
                 (A) (A) (A) (A) (A) (A) (A) (A) (A) (A) (A) (A)
                 (A) (A) (A) (A) (A) (A) (A) (A) (A)
 Harris functional with IExCor=  402 diagonalized for initial guess.
 ExpMin= 1.03D-01 ExpMax= 8.59D+03 ExpMxC= 1.30D+03 IAcc=1 IRadAn=         1 AccDes= 1.00D-06
 HarFok:  IExCor= 402 AccDes= 1.00D-06 IRadAn=         1 IDoV=1
 ScaDFX=  1.000000  1.000000  1.000000  1.000000
 Requested convergence on RMS density matrix=1.00D-08 within 128 cycles.
 Requested convergence on MAX density matrix=1.00D-06.
 Requested convergence on             energy=1.00D-06.
 No special actions if energy rises.
 Keep R1 integrals in memory in canonical form, NReq=    76038014.
 Integral accuracy reduced to 1.0D-05 until final iterations.
 Initial convergence to 1.0D-05 achieved.  Increase integral accuracy.
 SCF Done:  E(RB+HF-LYP) =  -233.743040598     A.U. after   10 cycles
             Convg  =    0.3582D-08             -V/T =  2.0043
             S**2   =   0.0000
 ***** Axes restored to original set *****
 -------------------------------------------------------------------
 Center     Atomic                   Forces (Hartrees/Bohr)
 Number     Number              X              Y              Z
 -------------------------------------------------------------------
    1          6           0.000001669   -0.000010454   -0.000008100
    2          1           0.000006051    0.000002381    0.000009531
    3          1           0.000008057    0.000000740   -0.000009446
    4          1          -0.000006223    0.000009587    0.000000817
    5          6           0.000003827    0.000003752    0.000004854
    6          1          -0.000008371    0.000002023    0.000004304
    7          1          -0.000002584   -0.000005460   -0.000009197
    8          6          -0.000003770   -0.000001725    0.000006497
    9          1           0.000010187    0.000000055   -0.000002127
   10          6           0.000004152    0.000005269    0.000001311
   11          1          -0.000001472   -0.000000980   -0.000009148
   12          1           0.000000513   -0.000009896    0.000006679
   13          1          -0.000015268   -0.000000690    0.000004101
   14          8           0.000192582    0.000001565   -0.000066875
   15          1          -0.000189350    0.000003832    0.000066799
 -------------------------------------------------------------------
 Cartesian Forces:  Max     0.000192582 RMS     0.000043063

 GradGradGradGradGradGradGradGradGradGradGradGradGradGradGradGradGradGrad
 Berny optimization.
 Internal  Forces:  Max     0.000203445 RMS     0.000024943
 Search for a local minimum.
 Step number   2 out of a maximum of  79
 All quantities printed in internal units (Hartrees-Bohrs-Radians)
 Update second derivatives using D2CorX and points  1  2
 Trust test= 9.92D-01 RLast= 5.74D-02 DXMaxT set to 3.00D-01
     Eigenvalues ---    0.00210   0.00251   0.00351   0.00384   0.03365
     Eigenvalues ---    0.03867   0.04024   0.04458   0.04467   0.04555
     Eigenvalues ---    0.04574   0.05506   0.06643   0.07106   0.10289
     Eigenvalues ---    0.12059   0.12099   0.12604   0.13800   0.13833
     Eigenvalues ---    0.15676   0.16157   0.18710   0.19258   0.21321
     Eigenvalues ---    0.26753   0.27980   0.30090   0.31332   0.31620
     Eigenvalues ---    0.32313   0.32511   0.32599   0.32994   0.33107
     Eigenvalues ---    0.33652   0.33887   0.35934   0.503371000.00000
     Eigenvalues --- 1000.000001000.000001000.000001000.000001000.00000
     Eigenvalues --- 1000.000001000.000001000.000001000.000001000.00000
     Eigenvalues --- 1000.000001000.000001000.000001000.000001000.00000
     Eigenvalues --- 1000.000001000.000001000.000001000.000001000.00000
     Eigenvalues --- 1000.000001000.000001000.000001000.000001000.00000
     Eigenvalues --- 1000.000001000.000001000.000001000.00000
 RFO step:  Lambda=-9.30909464D-08.
 Quartic linear search produced a step of -0.01383.
 Iteration  1 RMS(Cart)=  0.00075042 RMS(Int)=  0.00000041
 Iteration  2 RMS(Cart)=  0.00000044 RMS(Int)=  0.00000001
 Variable       Old X    -DE/DX   Delta X   Delta X   Delta X     New X
                                 (Linear)    (Quad)   (Total)
    R1        2.06284   0.00001   0.00007  -0.00003   0.00004   2.06288
    R2        2.06815   0.00001   0.00007  -0.00005   0.00002   2.06817
    R3        2.06559   0.00001   0.00007  -0.00004   0.00003   2.06562
    R4        2.89151   0.00001   0.00002  -0.00001   0.00001   2.89151
    R5        2.07700   0.00001   0.00007  -0.00004   0.00002   2.07703
    R6        2.07166   0.00001   0.00006  -0.00004   0.00003   2.07169
    R7        2.89887   0.00000   0.00005  -0.00003   0.00002   2.89889
    R8        2.06972   0.00001   0.00006  -0.00003   0.00003   2.06975
    R9        2.88718   0.00001   0.00006  -0.00004   0.00002   2.88720
   R10        2.70807   0.00000  -0.00003   0.00001  -0.00002   2.70806
   R11        2.06713   0.00001   0.00006  -0.00003   0.00003   2.06716
   R12        2.06347   0.00001   0.00007  -0.00004   0.00003   2.06350
   R13        2.07162   0.00001   0.00007  -0.00003   0.00004   2.07166
   R14        1.82113   0.00020   0.00020   0.00020   0.00040   1.82154
    A1        1.87798   0.00000  -0.00001   0.00005   0.00004   1.87802
    A2        1.89284   0.00000   0.00001  -0.00005  -0.00005   1.89280
    A3        1.92961   0.00000   0.00001  -0.00006  -0.00005   1.92957
    A4        1.88075   0.00000   0.00000   0.00000   0.00000   1.88075
    A5        1.93711   0.00000   0.00000   0.00002   0.00002   1.93713
    A6        1.94334   0.00000  -0.00001   0.00004   0.00003   1.94337
    A7        1.91797   0.00000   0.00000   0.00001   0.00001   1.91798
    A8        1.92155   0.00000   0.00001   0.00004   0.00005   1.92160
    A9        1.97910   0.00000  -0.00001  -0.00002  -0.00003   1.97908
   A10        1.85176   0.00000  -0.00003   0.00003   0.00000   1.85177
   A11        1.89015   0.00000   0.00003  -0.00009  -0.00006   1.89009
   A12        1.89867   0.00000   0.00000   0.00003   0.00003   1.89870
   A13        1.89723   0.00000  -0.00001   0.00004   0.00003   1.89726
   A14        1.96632   0.00000  -0.00003   0.00003   0.00000   1.96632
   A15        1.94308   0.00000   0.00004  -0.00008  -0.00004   1.94304
   A16        1.90231   0.00000  -0.00001   0.00000  -0.00001   1.90230
   A17        1.81286   0.00000   0.00000  -0.00004  -0.00004   1.81282
   A18        1.93495   0.00001   0.00001   0.00005   0.00006   1.93501
   A19        1.94417   0.00000   0.00000  -0.00003  -0.00003   1.94415
   A20        1.92333   0.00000   0.00004  -0.00005  -0.00001   1.92333
   A21        1.93192   0.00000   0.00001   0.00004   0.00005   1.93196
   A22        1.89528   0.00000  -0.00001   0.00001   0.00000   1.89527
   A23        1.88010   0.00000  -0.00004   0.00003   0.00000   1.88010
   A24        1.88739   0.00000   0.00000   0.00000   0.00000   1.88739
   A25        1.87560   0.00001  -0.00010   0.00015   0.00005   1.87565
    D1        1.14761   0.00000  -0.00015   0.00131   0.00115   1.14876
    D2       -3.10205   0.00000  -0.00018   0.00137   0.00119  -3.10087
    D3       -0.97040   0.00000  -0.00018   0.00143   0.00124  -0.96916
    D4       -3.05295   0.00000  -0.00016   0.00134   0.00119  -3.05176
    D5       -1.01943   0.00000  -0.00019   0.00141   0.00122  -1.01820
    D6        1.11223   0.00000  -0.00019   0.00146   0.00128   1.11350
    D7       -0.95779   0.00000  -0.00016   0.00138   0.00122  -0.95657
    D8        1.07573   0.00000  -0.00019   0.00145   0.00126   1.07699
    D9       -3.07580   0.00000  -0.00019   0.00150   0.00131  -3.07449
   D10       -0.97605   0.00000  -0.00014   0.00081   0.00067  -0.97538
   D11       -3.08637   0.00000  -0.00011   0.00077   0.00066  -3.08571
   D12        1.01051   0.00000  -0.00013   0.00075   0.00061   1.01112
   D13       -3.10960   0.00000  -0.00016   0.00088   0.00072  -3.10888
   D14        1.06327   0.00000  -0.00012   0.00083   0.00071   1.06398
   D15       -1.12304   0.00000  -0.00015   0.00081   0.00066  -1.12238
   D16        1.16828   0.00000  -0.00014   0.00087   0.00074   1.16902
   D17       -0.94203   0.00000  -0.00010   0.00083   0.00073  -0.94131
   D18       -3.12835   0.00000  -0.00013   0.00081   0.00068  -3.12767
   D19        1.06135   0.00000  -0.00013   0.00074   0.00061   1.06196
   D20       -3.11704   0.00000  -0.00012   0.00069   0.00058  -3.11646
   D21       -1.03006   0.00000  -0.00009   0.00069   0.00060  -1.02946
   D22       -1.04606   0.00000  -0.00009   0.00067   0.00058  -1.04548
   D23        1.05874   0.00000  -0.00008   0.00063   0.00055   1.05929
   D24       -3.13748   0.00000  -0.00005   0.00063   0.00057  -3.13690
   D25       -3.03110   0.00000  -0.00009   0.00069   0.00060  -3.03050
   D26       -0.92631   0.00000  -0.00008   0.00065   0.00057  -0.92573
   D27        1.16067   0.00000  -0.00005   0.00064   0.00059   1.16126
   D28        1.13260   0.00000  -0.00006   0.00002  -0.00004   1.13256
   D29       -3.11190   0.00000  -0.00005   0.00000  -0.00005  -3.11195
   D30       -1.07110   0.00000  -0.00006   0.00000  -0.00005  -1.07116
         Item               Value     Threshold  Converged?
 Maximum Force            0.000203     0.000450     YES
 RMS     Force            0.000025     0.000300     YES
 Maximum Displacement     0.002967     0.001800     NO 
 RMS     Displacement     0.000750     0.001200     YES
 Predicted change in Energy=-6.103571D-08
 GradGradGradGradGradGradGradGradGradGradGradGradGradGradGradGradGradGrad

                          Input orientation:                          
 ---------------------------------------------------------------------
 Center     Atomic     Atomic              Coordinates (Angstroms)
 Number     Number      Type              X           Y           Z
 ---------------------------------------------------------------------
    1          6             0        0.002510   -0.001306   -0.003135
    2          1             0        0.019043   -0.008271    1.088349
    3          1             0        1.040556    0.003759   -0.349845
    4          1             0       -0.464747    0.929092   -0.336086
    5          6             0       -0.747658   -1.223441   -0.536905
    6          1             0       -1.808406   -1.163538   -0.255334
    7          1             0       -0.724031   -1.230948   -1.632915
    8          6             0       -0.187123   -2.555141   -0.021532
    9          1             0        0.878502   -2.607070   -0.269224
   10          6             0       -0.897469   -3.765760   -0.624942
   11          1             0       -0.788681   -3.790736   -1.713124
   12          1             0       -0.485219   -4.689004   -0.212580
   13          1             0       -1.969514   -3.739096   -0.397278
   14          8             0       -0.210059   -2.611093    1.410234
   15          1             0       -1.133674   -2.595832    1.685617
 ---------------------------------------------------------------------
                    Distance matrix (angstroms):
                    1          2          3          4          5
     1  C    0.000000
     2  H    1.091631   0.000000
     3  H    1.094429   1.764096   0.000000
     4  H    1.093081   1.772489   1.767023   0.000000
     5  C    1.530123   2.169312   2.176860   2.180313   0.000000
     6  H    2.166519   2.545524   3.080276   2.488180   1.099116
     7  H    2.167040   3.074471   2.506898   2.532738   1.096291
     8  C    2.560932   2.785836   2.857089   3.509401   1.534025
     9  H    2.761915   3.055394   2.617096   3.783283   2.151855
    10  C    3.920168   4.230139   4.247457   4.723591   2.548250
    11  H    4.232000   4.775741   4.427508   4.927264   2.824212
    12  H    4.717654   4.884256   4.936482   5.619491   3.490586
    13  H    4.244444   4.481127   4.803305   4.905104   2.800169
    14  O    2.975531   2.632637   3.391072   3.955680   2.450702
    15  H    3.297630   2.894988   3.953259   4.118232   2.640467
                    6          7          8          9         10
     6  H    0.000000
     7  H    1.754464   0.000000
     8  C    2.149367   2.153675   0.000000
     9  H    3.050156   2.514254   1.095265   0.000000
    10  C    2.781721   2.733379   1.527839   2.150155   0.000000
    11  H    3.172878   2.561860   2.179461   2.503079   1.093891
    12  H    3.765841   3.746003   2.163038   2.489456   1.091958
    13  H    2.584492   3.060855   2.172522   3.067421   1.096277
    14  O    2.724746   3.380788   1.433042   2.001390   2.438797
    15  H    2.504799   3.611560   1.952426   2.805420   2.600616
                   11         12         13         14         15
    11  H    0.000000
    12  H    1.774995   0.000000
    13  H    1.768752   1.771884   0.000000
    14  O    3.388470   2.650840   2.763182   0.000000
    15  H    3.619151   2.899140   2.518756   0.963915   0.000000
 Stoichiometry    C4H10O
 Framework group  C1[X(C4H10O)]
 Deg. of freedom    39
 Full point group                 C1
 Largest Abelian subgroup         C1      NOp   1
 Largest concise Abelian subgroup C1      NOp   1
                         Standard orientation:                         
 ---------------------------------------------------------------------
 Center     Atomic     Atomic              Coordinates (Angstroms)
 Number     Number      Type              X           Y           Z
 ---------------------------------------------------------------------
    1          6             0       -2.066968   -0.048470   -0.104326
    2          1             0       -2.078133    1.009166    0.165745
    3          1             0       -2.241129   -0.116565   -1.182661
    4          1             0       -2.901122   -0.543098    0.400010
    5          6             0       -0.729030   -0.686020    0.276105
    6          1             0       -0.614195   -0.690327    1.369198
    7          1             0       -0.710268   -1.736876   -0.035668
    8          6             0        0.482521    0.031583   -0.332519
    9          1             0        0.358535    0.069368   -1.420087
   10          6             0        1.803404   -0.663583   -0.006474
   11          1             0        1.825001   -1.684006   -0.400007
   12          1             0        2.638619   -0.106886   -0.436450
   13          1             0        1.953652   -0.720890    1.077945
   14          8             0        0.521504    1.410171    0.056819
   15          1             0        0.657443    1.437685    1.010704
 ---------------------------------------------------------------------
 Rotational constants (GHZ):      7.9687357      3.4164147      2.6546778
 Standard basis: CBSB7 (5D, 7F)
 There are   150 symmetry adapted basis functions of A   symmetry.
 Integral buffers will be    131072 words long.
 Raffenetti 2 integral format.
 Two-electron integral symmetry is turned on.
   150 basis functions,   240 primitive gaussians,   155 cartesian basis functions
    21 alpha electrons       21 beta electrons
       nuclear repulsion energy       192.9272399010 Hartrees.
 NAtoms=   15 NActive=   15 NUniq=   15 SFac= 7.50D-01 NAtFMM=   80 NAOKFM=F Big=F
 One-electron integrals computed using PRISM.
 NBasis=   150 RedAO= T  NBF=   150
 NBsUse=   150 1.00D-06 NBFU=   150
 Initial guess read from the read-write file:
 Initial guess orbital symmetries:
       Occupied  (A) (A) (A) (A) (A) (A) (A) (A) (A) (A) (A) (A)
                 (A) (A) (A) (A) (A) (A) (A) (A) (A)
       Virtual   (A) (A) (A) (A) (A) (A) (A) (A) (A) (A) (A) (A)
                 (A) (A) (A) (A) (A) (A) (A) (A) (A) (A) (A) (A)
                 (A) (A) (A) (A) (A) (A) (A) (A) (A) (A) (A) (A)
                 (A) (A) (A) (A) (A) (A) (A) (A) (A) (A) (A) (A)
                 (A) (A) (A) (A) (A) (A) (A) (A) (A) (A) (A) (A)
                 (A) (A) (A) (A) (A) (A) (A) (A) (A) (A) (A) (A)
                 (A) (A) (A) (A) (A) (A) (A) (A) (A) (A) (A) (A)
                 (A) (A) (A) (A) (A) (A) (A) (A) (A) (A) (A) (A)
                 (A) (A) (A) (A) (A) (A) (A) (A) (A) (A) (A) (A)
                 (A) (A) (A) (A) (A) (A) (A) (A) (A) (A) (A) (A)
                 (A) (A) (A) (A) (A) (A) (A) (A) (A)
 Requested convergence on RMS density matrix=1.00D-08 within 128 cycles.
 Requested convergence on MAX density matrix=1.00D-06.
 Requested convergence on             energy=1.00D-06.
 No special actions if energy rises.
 Keep R1 integrals in memory in canonical form, NReq=    76038014.
 SCF Done:  E(RB+HF-LYP) =  -233.743040673     A.U. after    6 cycles
             Convg  =    0.7018D-08             -V/T =  2.0043
             S**2   =   0.0000
 ***** Axes restored to original set *****
 -------------------------------------------------------------------
 Center     Atomic                   Forces (Hartrees/Bohr)
 Number     Number              X              Y              Z
 -------------------------------------------------------------------
    1          6           0.000001594   -0.000000463   -0.000001955
    2          1           0.000002859    0.000001246   -0.000001632
    3          1           0.000000808   -0.000001058   -0.000003758
    4          1           0.000001052    0.000000237   -0.000001736
    5          6          -0.000000583   -0.000000143   -0.000000196
    6          1          -0.000000104    0.000000008    0.000002239
    7          1          -0.000003086   -0.000000386   -0.000000188
    8          6          -0.000000008   -0.000000208   -0.000000161
    9          1          -0.000000336   -0.000000956   -0.000002628
   10          6          -0.000001614   -0.000000074    0.000002092
   11          1          -0.000004441   -0.000000447    0.000001097
   12          1          -0.000001168   -0.000000414    0.000001260
   13          1          -0.000001836    0.000000355    0.000004168
   14          8          -0.000003333    0.000000896    0.000001587
   15          1           0.000010196    0.000001407   -0.000000186
 -------------------------------------------------------------------
 Cartesian Forces:  Max     0.000010196 RMS     0.000002284

 GradGradGradGradGradGradGradGradGradGradGradGradGradGradGradGradGradGrad
 Berny optimization.
 Internal  Forces:  Max     0.000006921 RMS     0.000000886
 Search for a local minimum.
 Step number   3 out of a maximum of  79
 All quantities printed in internal units (Hartrees-Bohrs-Radians)
 Update second derivatives using D2CorX and points  1  2  3
 Trust test= 1.24D+00 RLast= 4.60D-03 DXMaxT set to 3.00D-01
     Eigenvalues ---    0.00212   0.00251   0.00351   0.00385   0.03365
     Eigenvalues ---    0.03867   0.04023   0.04458   0.04467   0.04555
     Eigenvalues ---    0.04573   0.05505   0.06643   0.07105   0.10287
     Eigenvalues ---    0.12057   0.12098   0.12601   0.13800   0.13833
     Eigenvalues ---    0.15676   0.16149   0.18710   0.19255   0.21320
     Eigenvalues ---    0.26749   0.27982   0.30091   0.31329   0.31618
     Eigenvalues ---    0.32312   0.32507   0.32599   0.32991   0.33107
     Eigenvalues ---    0.33638   0.33873   0.35930   0.515621000.00000
     Eigenvalues --- 1000.000001000.000001000.000001000.000001000.00000
     Eigenvalues --- 1000.000001000.000001000.000001000.000001000.00000
     Eigenvalues --- 1000.000001000.000001000.000001000.000001000.00000
     Eigenvalues --- 1000.000001000.000001000.000001000.000001000.00000
     Eigenvalues --- 1000.000001000.000001000.000001000.000001000.00000
     Eigenvalues --- 1000.000001000.000001000.000001000.00000
 RFO step:  Lambda= 0.00000000D+00.
 Quartic linear search produced a step of -0.03964.
 Iteration  1 RMS(Cart)=  0.00005054 RMS(Int)=  0.00000000
 Iteration  2 RMS(Cart)=  0.00000000 RMS(Int)=  0.00000000
 Variable       Old X    -DE/DX   Delta X   Delta X   Delta X     New X
                                 (Linear)    (Quad)   (Total)
    R1        2.06288   0.00000   0.00000   0.00000   0.00000   2.06288
    R2        2.06817   0.00000   0.00000   0.00000   0.00000   2.06817
    R3        2.06562   0.00000   0.00000   0.00000   0.00000   2.06562
    R4        2.89151   0.00000   0.00000   0.00000   0.00000   2.89152
    R5        2.07703   0.00000   0.00000   0.00000   0.00000   2.07703
    R6        2.07169   0.00000   0.00000   0.00000   0.00000   2.07169
    R7        2.89889   0.00000   0.00000   0.00000   0.00000   2.89889
    R8        2.06975   0.00000   0.00000   0.00000   0.00000   2.06975
    R9        2.88720   0.00000   0.00000   0.00000   0.00000   2.88720
   R10        2.70806   0.00000   0.00000   0.00000   0.00000   2.70806
   R11        2.06716   0.00000   0.00000   0.00000   0.00000   2.06716
   R12        2.06350   0.00000   0.00000   0.00000   0.00000   2.06350
   R13        2.07166   0.00000   0.00000   0.00000   0.00000   2.07167
   R14        1.82154  -0.00001  -0.00002   0.00000  -0.00001   1.82152
    A1        1.87802   0.00000   0.00000   0.00000   0.00000   1.87802
    A2        1.89280   0.00000   0.00000  -0.00001  -0.00001   1.89279
    A3        1.92957   0.00000   0.00000   0.00001   0.00001   1.92957
    A4        1.88075   0.00000   0.00000   0.00000   0.00000   1.88075
    A5        1.93713   0.00000   0.00000   0.00000   0.00000   1.93713
    A6        1.94337   0.00000   0.00000   0.00000   0.00000   1.94337
    A7        1.91798   0.00000   0.00000   0.00000   0.00000   1.91799
    A8        1.92160   0.00000   0.00000   0.00000   0.00000   1.92160
    A9        1.97908   0.00000   0.00000   0.00000   0.00000   1.97908
   A10        1.85177   0.00000   0.00000   0.00000   0.00000   1.85176
   A11        1.89009   0.00000   0.00000   0.00000   0.00000   1.89009
   A12        1.89870   0.00000   0.00000   0.00000   0.00000   1.89869
   A13        1.89726   0.00000   0.00000   0.00000   0.00000   1.89726
   A14        1.96632   0.00000   0.00000   0.00000   0.00000   1.96632
   A15        1.94304   0.00000   0.00000   0.00000   0.00000   1.94305
   A16        1.90230   0.00000   0.00000   0.00000   0.00000   1.90230
   A17        1.81282   0.00000   0.00000   0.00000   0.00000   1.81282
   A18        1.93501   0.00000   0.00000   0.00000   0.00000   1.93501
   A19        1.94415   0.00000   0.00000   0.00000   0.00000   1.94414
   A20        1.92333   0.00000   0.00000   0.00000   0.00000   1.92333
   A21        1.93196   0.00000   0.00000   0.00000   0.00000   1.93197
   A22        1.89527   0.00000   0.00000   0.00000   0.00000   1.89528
   A23        1.88010   0.00000   0.00000   0.00000   0.00000   1.88010
   A24        1.88739   0.00000   0.00000   0.00000   0.00000   1.88739
   A25        1.87565   0.00000   0.00000   0.00000   0.00000   1.87565
    D1        1.14876   0.00000  -0.00005  -0.00002  -0.00007   1.14869
    D2       -3.10087   0.00000  -0.00005  -0.00002  -0.00007  -3.10094
    D3       -0.96916   0.00000  -0.00005  -0.00003  -0.00007  -0.96923
    D4       -3.05176   0.00000  -0.00005  -0.00002  -0.00007  -3.05183
    D5       -1.01820   0.00000  -0.00005  -0.00002  -0.00007  -1.01827
    D6        1.11350   0.00000  -0.00005  -0.00002  -0.00007   1.11343
    D7       -0.95657   0.00000  -0.00005  -0.00002  -0.00006  -0.95663
    D8        1.07699   0.00000  -0.00005  -0.00002  -0.00007   1.07692
    D9       -3.07449   0.00000  -0.00005  -0.00002  -0.00007  -3.07456
   D10       -0.97538   0.00000  -0.00003  -0.00003  -0.00006  -0.97544
   D11       -3.08571   0.00000  -0.00003  -0.00003  -0.00005  -3.08576
   D12        1.01112   0.00000  -0.00002  -0.00003  -0.00005   1.01106
   D13       -3.10888   0.00000  -0.00003  -0.00003  -0.00006  -3.10894
   D14        1.06398   0.00000  -0.00003  -0.00003  -0.00006   1.06392
   D15       -1.12238   0.00000  -0.00003  -0.00003  -0.00006  -1.12244
   D16        1.16902   0.00000  -0.00003  -0.00003  -0.00006   1.16896
   D17       -0.94131   0.00000  -0.00003  -0.00002  -0.00005  -0.94136
   D18       -3.12767   0.00000  -0.00003  -0.00003  -0.00006  -3.12772
   D19        1.06196   0.00000  -0.00002  -0.00001  -0.00003   1.06193
   D20       -3.11646   0.00000  -0.00002  -0.00001  -0.00003  -3.11649
   D21       -1.02946   0.00000  -0.00002  -0.00001  -0.00003  -1.02949
   D22       -1.04548   0.00000  -0.00002  -0.00001  -0.00003  -1.04550
   D23        1.05929   0.00000  -0.00002  -0.00001  -0.00003   1.05926
   D24       -3.13690   0.00000  -0.00002   0.00000  -0.00003  -3.13693
   D25       -3.03050   0.00000  -0.00002   0.00000  -0.00003  -3.03053
   D26       -0.92573   0.00000  -0.00002   0.00000  -0.00003  -0.92576
   D27        1.16126   0.00000  -0.00002   0.00000  -0.00003   1.16123
   D28        1.13256   0.00000   0.00000  -0.00004  -0.00004   1.13252
   D29       -3.11195   0.00000   0.00000  -0.00004  -0.00004  -3.11199
   D30       -1.07116   0.00000   0.00000  -0.00004  -0.00004  -1.07120
         Item               Value     Threshold  Converged?
 Maximum Force            0.000007     0.000450     YES
 RMS     Force            0.000001     0.000300     YES
 Maximum Displacement     0.000196     0.001800     YES
 RMS     Displacement     0.000051     0.001200     YES
 Predicted change in Energy=-4.155070D-10
 Optimization completed.
    -- Stationary point found.
                           ----------------------------
                           !   Optimized Parameters   !
                           ! (Angstroms and Degrees)  !
 --------------------------                            --------------------------
 ! Name  Definition              Value          Derivative Info.                !
 --------------------------------------------------------------------------------
 ! R1    R(1,2)                  1.0916         -DE/DX =    0.0                 !
 ! R2    R(1,3)                  1.0944         -DE/DX =    0.0                 !
 ! R3    R(1,4)                  1.0931         -DE/DX =    0.0                 !
 ! R4    R(1,5)                  1.5301         -DE/DX =    0.0                 !
 ! R5    R(5,6)                  1.0991         -DE/DX =    0.0                 !
 ! R6    R(5,7)                  1.0963         -DE/DX =    0.0                 !
 ! R7    R(5,8)                  1.534          -DE/DX =    0.0                 !
 ! R8    R(8,9)                  1.0953         -DE/DX =    0.0                 !
 ! R9    R(8,10)                 1.5278         -DE/DX =    0.0                 !
 ! R10   R(8,14)                 1.433          -DE/DX =    0.0                 !
 ! R11   R(10,11)                1.0939         -DE/DX =    0.0                 !
 ! R12   R(10,12)                1.092          -DE/DX =    0.0                 !
 ! R13   R(10,13)                1.0963         -DE/DX =    0.0                 !
 ! R14   R(14,15)                0.9639         -DE/DX =    0.0                 !
 ! A1    A(2,1,3)              107.6029         -DE/DX =    0.0                 !
 ! A2    A(2,1,4)              108.4492         -DE/DX =    0.0                 !
 ! A3    A(2,1,5)              110.556          -DE/DX =    0.0                 !
 ! A4    A(3,1,4)              107.7588         -DE/DX =    0.0                 !
 ! A5    A(3,1,5)              110.9893         -DE/DX =    0.0                 !
 ! A6    A(4,1,5)              111.3469         -DE/DX =    0.0                 !
 ! A7    A(1,5,6)              109.8924         -DE/DX =    0.0                 !
 ! A8    A(1,5,7)              110.0997         -DE/DX =    0.0                 !
 ! A9    A(1,5,8)              113.3928         -DE/DX =    0.0                 !
 ! A10   A(6,5,7)              106.0983         -DE/DX =    0.0                 !
 ! A11   A(6,5,8)              108.2939         -DE/DX =    0.0                 !
 ! A12   A(7,5,8)              108.7873         -DE/DX =    0.0                 !
 ! A13   A(5,8,9)              108.7049         -DE/DX =    0.0                 !
 ! A14   A(5,8,10)             112.6619         -DE/DX =    0.0                 !
 ! A15   A(5,8,14)             111.3281         -DE/DX =    0.0                 !
 ! A16   A(9,8,10)             108.9939         -DE/DX =    0.0                 !
 ! A17   A(9,8,14)             103.867          -DE/DX =    0.0                 !
 ! A18   A(10,8,14)            110.8678         -DE/DX =    0.0                 !
 ! A19   A(8,10,11)            111.3913         -DE/DX =    0.0                 !
 ! A20   A(8,10,12)            110.1985         -DE/DX =    0.0                 !
 ! A21   A(8,10,13)            110.6934         -DE/DX =    0.0                 !
 ! A22   A(11,10,12)           108.5912         -DE/DX =    0.0                 !
 ! A23   A(11,10,13)           107.7217         -DE/DX =    0.0                 !
 ! A24   A(12,10,13)           108.1393         -DE/DX =    0.0                 !
 ! A25   A(8,14,15)            107.4669         -DE/DX =    0.0                 !
 ! D1    D(2,1,5,6)             65.8192         -DE/DX =    0.0                 !
 ! D2    D(2,1,5,7)           -177.6665         -DE/DX =    0.0                 !
 ! D3    D(2,1,5,8)            -55.5287         -DE/DX =    0.0                 !
 ! D4    D(3,1,5,6)           -174.853          -DE/DX =    0.0                 !
 ! D5    D(3,1,5,7)            -58.3388         -DE/DX =    0.0                 !
 ! D6    D(3,1,5,8)             63.799          -DE/DX =    0.0                 !
 ! D7    D(4,1,5,6)            -54.8072         -DE/DX =    0.0                 !
 ! D8    D(4,1,5,7)             61.707          -DE/DX =    0.0                 !
 ! D9    D(4,1,5,8)           -176.1552         -DE/DX =    0.0                 !
 ! D10   D(1,5,8,9)            -55.8852         -DE/DX =    0.0                 !
 ! D11   D(1,5,8,10)          -176.7979         -DE/DX =    0.0                 !
 ! D12   D(1,5,8,14)            57.9328         -DE/DX =    0.0                 !
 ! D13   D(6,5,8,9)           -178.1258         -DE/DX =    0.0                 !
 ! D14   D(6,5,8,10)            60.9615         -DE/DX =    0.0                 !
 ! D15   D(6,5,8,14)           -64.3078         -DE/DX =    0.0                 !
 ! D16   D(7,5,8,9)             66.9798         -DE/DX =    0.0                 !
 ! D17   D(7,5,8,10)           -53.9329         -DE/DX =    0.0                 !
 ! D18   D(7,5,8,14)          -179.2021         -DE/DX =    0.0                 !
 ! D19   D(5,8,10,11)           60.846          -DE/DX =    0.0                 !
 ! D20   D(5,8,10,12)         -178.5598         -DE/DX =    0.0                 !
 ! D21   D(5,8,10,13)          -58.9839         -DE/DX =    0.0                 !
 ! D22   D(9,8,10,11)          -59.9013         -DE/DX =    0.0                 !
 ! D23   D(9,8,10,12)           60.6928         -DE/DX =    0.0                 !
 ! D24   D(9,8,10,13)         -179.7313         -DE/DX =    0.0                 !
 ! D25   D(14,8,10,11)        -173.6347         -DE/DX =    0.0                 !
 ! D26   D(14,8,10,12)         -53.0406         -DE/DX =    0.0                 !
 ! D27   D(14,8,10,13)          66.5353         -DE/DX =    0.0                 !
 ! D28   D(5,8,14,15)           64.8909         -DE/DX =    0.0                 !
 ! D29   D(9,8,14,15)         -178.3015         -DE/DX =    0.0                 !
 ! D30   D(10,8,14,15)         -61.3728         -DE/DX =    0.0                 !
 --------------------------------------------------------------------------------
 GradGradGradGradGradGradGradGradGradGradGradGradGradGradGradGradGradGrad

                          Input orientation:                          
 ---------------------------------------------------------------------
 Center     Atomic     Atomic              Coordinates (Angstroms)
 Number     Number      Type              X           Y           Z
 ---------------------------------------------------------------------
    1          6             0        0.002510   -0.001306   -0.003135
    2          1             0        0.019043   -0.008271    1.088349
    3          1             0        1.040556    0.003759   -0.349845
    4          1             0       -0.464747    0.929092   -0.336086
    5          6             0       -0.747658   -1.223441   -0.536905
    6          1             0       -1.808406   -1.163538   -0.255334
    7          1             0       -0.724031   -1.230948   -1.632915
    8          6             0       -0.187123   -2.555141   -0.021532
    9          1             0        0.878502   -2.607070   -0.269224
[...]
    11  H   -0.005770  -0.007357  -0.001935   0.419037   0.616526  -0.027893
    12  H    0.000884  -0.035668  -0.007668   0.428468  -0.027893   0.589551
    13  H    0.004197   0.036189   0.002657   0.370456  -0.041151  -0.028783
    14  O    0.007965   0.216549  -0.078867  -0.050135   0.008800  -0.006495
    15  H    0.000950  -0.006859   0.014203  -0.000972  -0.000539  -0.000801
             13         14         15
     1  C   -0.005064  -0.067648  -0.005812
     2  H    0.001323   0.001981   0.002668
     3  H    0.000423   0.001569  -0.000826
     4  H   -0.000100   0.000282   0.000819
     5  C   -0.026786   0.011374   0.013171
     6  H   -0.007651  -0.015326  -0.007014
     7  H    0.004197   0.007965   0.000950
     8  C    0.036189   0.216549  -0.006859
     9  H    0.002657  -0.078867   0.014203
    10  C    0.370456  -0.050135  -0.000972
    11  H   -0.041151   0.008800  -0.000539
    12  H   -0.028783  -0.006495  -0.000801
    13  H    0.651110  -0.012765  -0.002970
    14  O   -0.012765   8.121916   0.236811
    15  H   -0.002970   0.236811   0.520187
 Mulliken atomic charges:
              1
     1  C   -0.288343
     2  H    0.071588
     3  H    0.052178
     4  H    0.060456
     5  C   -0.058695
     6  H    0.050304
     7  H    0.033312
     8  C    0.257827
     9  H    0.042207
    10  C   -0.287357
    11  H    0.054045
    12  H    0.092592
    13  H    0.058914
    14  O   -0.376011
    15  H    0.236984
 Sum of Mulliken charges=   0.00000
 Atomic charges with hydrogens summed into heavy atoms:
              1
     1  C   -0.104121
     2  H    0.000000
     3  H    0.000000
     4  H    0.000000
     5  C    0.024921
     6  H    0.000000
     7  H    0.000000
     8  C    0.300034
     9  H    0.000000
    10  C   -0.081806
    11  H    0.000000
    12  H    0.000000
    13  H    0.000000
    14  O   -0.139028
    15  H    0.000000
 Sum of Mulliken charges=   0.00000
 Electronic spatial extent (au):  <R**2>=   525.7897
 Charge=     0.0000 electrons
 Dipole moment (field-independent basis, Debye):
    X=     0.1457    Y=    -1.5213    Z=     0.9450  Tot=     1.7968
 Quadrupole moment (field-independent basis, Debye-Ang):
   XX=   -33.9751   YY=   -36.5061   ZZ=   -31.0504
   XY=    -0.4182   XZ=     0.6764   YZ=     2.4398
 Traceless Quadrupole moment (field-independent basis, Debye-Ang):
   XX=    -0.1313   YY=    -2.6622   ZZ=     2.7935
   XY=    -0.4182   XZ=     0.6764   YZ=     2.4398
 Octapole moment (field-independent basis, Debye-Ang**2):
  XXX=     3.6009  YYY=    -0.1455  ZZZ=     2.1413  XYY=    -0.5690
  XXY=     1.5353  XXZ=     0.6092  XZZ=     2.3419  YZZ=     4.9302
  YYZ=     3.3424  XYZ=     1.6997
 Hexadecapole moment (field-independent basis, Debye-Ang**3):
 XXXX=  -465.0669 YYYY=  -181.4349 ZZZZ=   -69.6403 XXXY=     7.4339
 XXXZ=    -3.9770 YYYX=    -0.5661 YYYZ=    10.5329 ZZZX=     3.7097
 ZZZY=     4.3504 XXYY=  -107.6688 XXZZ=   -87.8260 YYZZ=   -38.4680
 XXYZ=     0.6909 YYXZ=     1.5603 ZZXY=     3.4426
 N-N= 1.929272399010D+02 E-N=-9.292342282924D+02  KE= 2.319705306663D+02
 1\1\GINC-NODE24\SP\RMP2-FC\CBSB3\C4H10O1\MRHARPER\19-Oct-2009\0\\#N Ge
 om=AllCheck Guess=Read SCRF=Check MP2/CBSB3 CBSExtrap=(NMin=10,MinPop)
 \\sBuOH: geometry\\0,1\C,0,0.0025098319,-0.0013057912,-0.0031346565\H,
 0,0.0190431872,-0.0082711156,1.0883485568\H,0,1.0405564346,0.003759182
 7,-0.3498453254\H,0,-0.4647472325,0.9290917706,-0.336086379\C,0,-0.747
 6577168,-1.2234408933,-0.5369048119\H,0,-1.8084056897,-1.163538246,-0.
 2553336817\H,0,-0.7240305066,-1.2309476021,-1.6329150051\C,0,-0.187123
 3347,-2.5551409676,-0.0215315007\H,0,0.878501641,-2.6070704995,-0.2692
 243872\C,0,-0.8974686794,-3.7657595882,-0.6249420903\H,0,-0.7886810136
 ,-3.7907355252,-1.7131239945\H,0,-0.4852188453,-4.6890040469,-0.212579
 6961\H,0,-1.9695142438,-3.73909575,-0.3972777838\O,0,-0.2100591246,-2.
 6110926082,1.410234243\H,0,-1.1336736991,-2.5958322796,1.6856165153\\V
 ersion=AM64L-G03RevD.01\State=1-A\HF=-232.2353563\MP2=-233.1708398\E2(
 CBS)=-1.0271116\CBS-Int=-0.995805\OIii=8.4886928\RMSD=4.114e-09\Therma
 l=0.\PG=C01 [X(C4H10O1)]\\@


 ERWIN WITH HIS PSI CAN DO
 CALCULATIONS QUITE A FEW.
 BUT ONE THING HAS NOT BEEN SEEN
 JUST WHAT DOES PSI REALLY MEAN.
 -- WALTER HUCKEL, TRANS. BY FELIX BLOCH
 Diagonal vibrational polarizability:
        0.0000000       0.0000000       0.0000000

 Complete Basis Set (CBS) Extrapolation:
 M. R. Nyden and G. A. Petersson, JCP 75, 1843 (1981)
 G. A. Petersson and M. A. Al-Laham, JCP 94, 6081 (1991)
 G. A. Petersson, T. Tensfeldt, and J. A. Montgomery, JCP 94, 6091 (1991)
 J. A. Montgomery, J. W. Ochterski, and G. A. Petersson, JCP 101, 5900 (1994)

 Temperature=            298.150000 Pressure=                    1.000000
 E(ZPE)=                   0.134726 E(Thermal)=                  0.141513
 E(SCF)=                 -232.235356 DE(MP2)=                     -0.935483
 DE(CBS)=                  -0.091628 DE(MP34)=                    -0.059391
 DE(CCSD)=                 -0.022754 DE(Int)=                      0.031307
 DE(Empirical)=            -0.049150
 CBS-QB3 (0 K)=          -233.227731 CBS-QB3 Energy=            -233.220943
 CBS-QB3 Enthalpy=       -233.219999 CBS-QB3 Free Energy=       -233.257325
 1\1\GINC-NODE24\Mixed\CBS-QB3\CBS-QB3\C4H10O1\MRHARPER\19-Oct-2009\0\\
 # opt=calcfc geom=connectivity cbs-qb3\\sBuOH: geometry\\0,1\C,0,0.002
 5098319,-0.0013057912,-0.0031346565\H,0,0.0190431872,-0.0082711156,1.0
 883485568\H,0,1.0405564346,0.0037591827,-0.3498453254\H,0,-0.464747232
 5,0.9290917706,-0.336086379\C,0,-0.7476577168,-1.2234408933,-0.5369048
 119\H,0,-1.8084056897,-1.163538246,-0.2553336817\H,0,-0.7240305066,-1.
 2309476021,-1.6329150051\C,0,-0.1871233347,-2.5551409676,-0.0215315007
 \H,0,0.878501641,-2.6070704995,-0.2692243872\C,0,-0.8974686794,-3.7657
 595882,-0.6249420903\H,0,-0.7886810136,-3.7907355252,-1.7131239945\H,0
 ,-0.4852188453,-4.6890040469,-0.2125796961\H,0,-1.9695142438,-3.739095
 75,-0.3972777838\O,0,-0.2100591246,-2.6110926082,1.410234243\H,0,-1.13
 36736991,-2.5958322796,1.6856165153\\Version=AM64L-G03RevD.01\State=1-
 A\HF/CbsB3=-232.2353563\E2(CBS)/CbsB3=-1.0271116\CBS-Int/CbsB3=0.03130
 66\OIii/CbsB3=8.4886928\MP2/CbsB4=-232.9646093\MP4(SDQ)/CbsB4=-233.024
 0004\MP4(SDQ)/6-31+G(d')=-232.933402\QCISD(T)/6-31+G(d')=-232.9561561\
 CBSQB3=-233.2277306\FreqCoord=0.0047428949,-0.0024675878,-0.0059236423
 ,0.0359864086,-0.0156301433,2.0566807107,1.9663666883,0.0071038257,-0.
 6611118543,-0.8782449909,1.7557289997,-0.6351112137,-1.4128683267,-2.3
 119682294,-1.0146030545,-3.4173914926,-2.1987686313,-0.4825107312,-1.3
 6821937,-2.3261538531,-3.0857621596,-0.3536118559,-4.8285166624,-0.040
 6886396,1.6601275098,-4.9266492559,-0.5087603603,-1.6959700179,-7.1162
 54308,-1.1809694001,-1.4903911228,-7.1634519888,-3.2373351831,-0.91693
 07327,-8.8609334894,-0.4017174072,-3.7218425377,-7.065866956,-0.750746
 2105,-0.3969542173,-4.9342499398,2.664956504,-2.1423328164,-4.90541209
 8,3.1853535807\PG=C01 [X(C4H10O1)]\NImag=0\\0.53627139,-0.04217108,0.5
 0534208,-0.01579002,-0.03229447,0.55347223,-0.04855766,0.00072508,-0.0
 0124411,0.04945262,0.00083824,-0.04614682,0.00632307,0.00242094,0.0493
 5103,-0.00127542,0.00321857,-0.31073758,0.00305461,-0.00319077,0.33864
 152,-0.27591642,0.00198313,0.07930408,0.00099823,0.00019688,0.00011222
 ,0.30208343,0.00295377,-0.04737576,-0.00035735,-0.00081584,-0.00084379
 ,0.00043637,0.00050058,0.05000886,0.08011131,-0.00025930,-0.07515270,0
 .03168187,-0.00115275,-0.00933823,-0.08659287,0.00255063,0.07699008,-0
 .09683544,0.09730680,-0.03535846,-0.00084651,-0.00113577,0.00024086,-0
 .01288152,0.02592631,-0.01055501,0.10278566,0.09594513,-0.23194035,0.0
 6834616,-0.00063864,0.00027755,0.00042373,0.00025562,0.00039281,-0.000
 59731,-0.10401754,0.25423573,-0.03528100,0.06905005,-0.07225288,-0.014
 90074,0.02770381,-0.00815799,0.00453456,-0.01031233,0.00289765,0.04007
 903,-0.07423730,0.07430620,-0.10815475,-0.04288921,-0.02052781,-0.0002
 3369,0.00014271,-0.00014977,-0.01619011,-0.02649479,-0.01298560,0.0075
 1907,0.01215195,0.00651106,0.53996587,-0.04327503,-0.14468641,-0.03006
 493,0.00012154,-0.00023339,-0.00202477,-0.00041195,-0.00064594,0.00019
 729,-0.01626799,-0.02132865,-0.01198188,0.00086554,0.44632949,-0.02141
 662,-0.03036429,-0.09449099,-0.01792645,-0.02868888,-0.01130705,0.0048
 2916,0.00932650,0.00368305,0.00657026,0.00881550,0.00346985,-0.0275865
 2,0.01107469,0.56671451,-0.01571217,-0.00010509,0.00433110,0.00031628,
 0.00028746,-0.00040730,-0.00021645,-0.00284114,-0.00162616,0.00082329,
 -0.00036326,0.00018042,-0.27148025,0.01332862,0.06266025,0.29968123,-0
 .02732300,-0.00006029,0.00777078,0.00083281,0.00102463,-0.00013079,-0.
 00292191,-0.00422307,-0.00262121,0.00049276,0.00088589,0.00070655,0.01
 398039,-0.04741320,-0.00286834,-0.01465754,0.05618285,-0.01195469,0.00
 033192,0.00315488,-0.00012980,0.00075547,0.00054857,-0.00168374,-0.001
 93695,0.00019388,0.00055987,0.00056162,0.00032899,0.06272213,-0.003824
 68,-0.06664200,-0.06837576,0.00428988,0.06778484,-0.00015649,-0.000556
 66,-0.01755721,-0.00088717,-0.00298205,-0.00164136,0.00055035,0.000804
 03,-0.00019516,0.00044385,0.00039555,0.00061857,-0.04862467,0.00126883
 ,0.00964958,-0.00110048,-0.00061364,0.03149590,0.04926470,0.00009733,-
 0.00127444,-0.02885321,-0.00323991,-0.00459989,-0.00150863,0.00022820,
 0.00118825,0.00084078,0.00084055,0.00071778,0.00034069,0.00166800,-0.0
 4781321,-0.00045584,0.00019610,-0.00042369,-0.00245821,0.00123391,0.05
 453685,0.00005412,-0.00059938,-0.01048936,-0.00119618,-0.00186248,0.00
 078331,-0.00049628,0.00014198,0.00063386,0.00020075,-0.00048694,0.0003
 8422,0.00854488,0.00121616,-0.29752254,0.00115881,0.00018966,-0.008602
 51,-0.00800680,0.00130518,0.32586943,0.00816263,-0.01379458,0.00745209
 ,0.00049411,0.00062444,-0.00054504,0.00017920,-0.00176892,0.00055384,-
 0.00210844,-0.00426048,-0.00184502,-0.10018261,0.03232652,-0.00554908,
 -0.01679264,0.03076669,-0.01135475,-0.00016224,-0.00450897,0.00244753,
 0.62312345,0.00779382,-0.03126174,0.00664606,0.00047610,0.00099283,0.0
 0101933,0.00126869,0.00183684,0.00036394,-0.00211691,-0.00218954,-0.00
 176589,0.03513894,-0.14996061,0.01707026,0.00205427,-0.00462908,0.0023
 2545,-0.00104596,0.00272164,-0.00258884,-0.00056172,0.46791603,0.00770
 691,-0.00841313,0.00701144,-0.00003581,-0.00256045,-0.00193220,-0.0000
 9736,0.00053455,0.00013435,-0.00198049,-0.00350243,-0.00237685,-0.0135
 6852,0.02195387,-0.07829636,0.00582160,-0.00872639,0.00123760,-0.01217
 098,0.02661246,-0.01246613,-0.04009889,0.00613643,0.44583532,0.0008621
 6,-0.00098639,0.00002500,0.00000503,0.00003548,0.00004202,0.00070057,0
 .00082262,0.00014444,0.00035969,-0.00006298,-0.00012795,-0.01360306,0.
 00226131,0.00177533,0.00032146,0.00187940,-0.00140748,0.00008309,0.000
 25712,-0.00056033,-0.29010296,0.01194879,0.05238346,0.31266567,0.00105
 599,0.00179979,-0.00038543,-0.00001815,-0.00011303,-0.00013091,-0.0008
 6717,-0.00022997,0.00017802,-0.00029688,0.00035194,0.00016303,0.029154
 12,-0.00427953,-0.00535119,0.00255502,-0.00466917,0.00180787,-0.000632
 11,0.00086628,0.00015037,0.01273484,-0.05129026,-0.00302631,-0.0127155
 6,0.05774726,0.00031200,-0.00048523,0.00007880,0.00010630,0.00014658,0
 .00000276,0.00020402,-0.00004835,0.00011866,-0.00009038,-0.00015929,-0
 .00010405,-0.01066886,0.00120539,0.00405299,-0.00117768,0.00228644,0.0
 0001240,0.00026181,-0.00072883,0.00036850,0.04163311,-0.00231631,-0.05
 501654,-0.05765078,0.00240582,0.07871509,-0.00171739,0.00221802,-0.000
 97096,-0.00000628,-0.00003044,0.00012418,0.00044176,0.00006224,-0.0001
 8340,0.00070142,0.00089215,0.00019944,0.00699764,0.00939977,0.00540019
 ,0.00041009,0.00117297,0.00021394,0.00026763,-0.00038024,0.00026331,-0
 .11033553,-0.04325076,-0.01899107,-0.01507651,-0.02726727,-0.01314007,
 0.53569710,0.00287832,-0.00301777,0.00226336,0.00008609,0.00002170,-0.
 00018456,-0.00013800,-0.00008464,0.00012855,-0.00079103,-0.00114641,-0
 .00056913,-0.01476546,-0.03036348,-0.00940154,-0.00087173,0.00164817,-
 0.00070462,-0.00049509,0.00037676,-0.00091609,-0.04094420,-0.14897469,
 -0.02929921,-0.00051384,-0.00039091,0.00004021,-0.04101996,0.50701312,
 -0.00152739,0.00284805,-0.00113661,-0.00005063,0.00029833,-0.00004543,
 -0.00005550,-0.00018173,-0.00001869,0.00030495,0.00104908,0.00047121,0
 .00592539,0.00555412,0.00883266,-0.00036455,0.00002775,-0.00025900,0.0
 0018014,-0.00012127,-0.00009694,-0.01122388,-0.02268419,-0.08174633,0.
 00173559,0.00441096,0.00381166,-0.01555773,-0.03759089,0.55731977,-0.0
 0006086,0.00012822,-0.00008102,-0.00000850,0.00006471,0.00000449,-0.00
 004342,-0.00001949,-0.00000148,0.00000634,0.00003849,0.00004432,0.0000
 6843,0.00034263,0.00029594,0.00007415,0.00003036,0.00012691,0.00032037
 ,-0.00005409,-0.00000790,0.00178375,0.00284011,-0.01414195,0.00013715,
 0.00071377,0.00029185,-0.04926137,-0.00028706,0.02787281,0.04946351,-0
 .00013268,0.00020345,0.00028094,0.00006091,0.00024272,0.00000249,-0.00
 000029,-0.00001408,-0.00002324,0.00002043,0.00005572,0.00001341,0.0003
 8486,0.00033017,0.00010026,-0.00010111,-0.00005503,-0.00000100,-0.0000
 2980,-0.00091982,0.00024719,0.00690471,0.00276544,-0.02332726,-0.00008
 857,0.00093958,0.00066338,-0.00040189,-0.04814630,-0.00337076,0.000973
 67,0.04786881,-0.00010562,-0.00031699,0.00034673,0.00007245,0.00026946
 ,0.00015187,-0.00002967,-0.00000659,-0.00002978,-0.00001195,-0.0000577
 2,0.00002378,0.00009544,0.00079600,-0.00040127,-0.00013825,0.00002610,
 0.00005985,0.00004674,-0.00026305,0.00109109,0.00359046,0.00359612,-0.
 01203050,-0.00060936,-0.00006399,0.00047179,0.02709337,-0.00520311,-0.
 30305099,-0.02944615,0.00513868,0.33083611,0.00081413,-0.00086501,0.00
 010432,-0.00000106,0.00002940,-0.00000244,0.00002759,0.00012377,0.0000
 6608,-0.00016680,-0.00028772,-0.00008558,-0.00127066,-0.00173966,-0.00
 173178,0.00039846,-0.00039500,-0.00017356,-0.00023612,0.00009974,-0.00
 011717,0.00616715,-0.01526127,0.00674466,0.00080669,0.00035144,0.00074
 323,-0.08722768,0.08704451,-0.03914894,0.00072604,-0.00427600,0.001455
 45,0.09161895,0.00121402,-0.00091898,0.00084477,-0.00001408,-0.0000903
 5,-0.00011739,-0.00009983,-0.00000775,0.00003871,-0.00031406,-0.000537
 42,-0.00023773,-0.00434947,-0.00283955,-0.00342519,0.00004343,0.000270
 25,-0.00012594,-0.00011164,0.00042915,0.00002337,0.01136405,-0.0241096
 6,0.01209975,-0.00028649,0.00094628,0.00019176,0.08555236,-0.23222453,
 0.08408989,-0.00135430,0.00185616,-0.00056272,-0.09233535,0.25400202,0
 .00010089,-0.00064614,0.00063129,0.00007389,0.00006639,0.00003177,-0.0
 0001255,-0.00002923,-0.00001193,-0.00012409,-0.00020528,-0.00005521,-0
 .00117617,-0.00157347,-0.00140956,-0.00014807,0.00014021,-0.00003626,-
 0.00002833,-0.00015787,0.00040740,0.00536276,-0.01220475,0.00349348,0.
 00033802,0.00073809,0.00020343,-0.03888725,0.08678518,-0.08576873,-0.0
 1271013,0.02692820,-0.01075167,0.04350348,-0.09281945,0.08917138,0.000
 45799,-0.00016536,-0.00016848,-0.00003641,0.00000947,-0.00000946,0.000
 13069,0.00027304,0.00005361,-0.00000756,-0.00012281,-0.00003435,0.0004
 2211,0.00136946,-0.00018658,0.00100546,-0.00086773,0.00007251,0.000013
 99,-0.00001213,-0.00009239,-0.01855723,0.00011889,0.00547061,0.0001577
 0,-0.00303108,-0.00170196,-0.28709872,0.00951887,0.05288034,-0.0024247
 2,0.00026606,0.00064459,-0.01156156,0.00016679,0.00291792,0.31519326,0
 .00009973,-0.00014066,-0.00008773,-0.00002040,0.00005723,0.00003454,0.
 00024143,0.00008538,-0.00001506,0.00008669,-0.00001591,0.00000095,-0.0
 0113189,0.00197095,0.00023689,0.00062372,-0.00023261,-0.00024223,-0.00
 001893,-0.00012607,0.00009858,-0.02883292,0.00009300,0.00689548,-0.002
 36846,-0.00388716,-0.00247589,0.00985459,-0.04779124,-0.00263806,0.000
 51641,-0.00107763,0.00011806,0.02636768,-0.00023239,-0.00736343,-0.007
 65051,0.04991374,-0.00015207,0.00012648,-0.00006656,-0.00002950,-0.000
 06286,-0.00000503,0.00001880,-0.00001367,-0.00003473,0.00005512,0.0000
 4101,-0.00000165,0.00015192,0.00080067,-0.00008627,0.00019145,0.000101
 17,0.00019757,0.00017061,0.00000356,-0.00000431,-0.01350936,0.00009615
 ,0.00123835,-0.00147097,-0.00211297,-0.00025618,0.05252020,-0.00168002
 ,-0.05887139,0.03205768,-0.00141371,-0.00567810,-0.01260199,-0.0004434
 9,0.00241612,-0.05773269,0.00394491,0.05920541,0.00076741,-0.00075240,
 0.00022986,-0.00053142,-0.00010547,0.00041452,0.00014289,0.00044703,-0
 .00031281,0.00017462,0.00000605,0.00016254,0.00213388,0.00101993,-0.01
 490558,0.00267357,-0.00171980,-0.00059882,0.00043855,0.00303646,-0.001
 74388,-0.09652362,0.00016412,0.02568761,0.00006048,-0.00159456,0.03941
 117,0.00318363,-0.00019931,-0.01915586,-0.00040081,-0.00309221,-0.0021
 3917,0.00005051,0.00036094,0.00058744,0.00265365,0.00145012,-0.0001748
 7,0.56309641,-0.00017829,0.00011232,-0.00079208,0.00064009,0.00062960,
 0.00222331,-0.00048905,-0.00026525,0.00070042,0.00025056,0.00025197,0.
 00126070,-0.00105287,0.00043714,0.03321448,-0.00105659,0.00159521,-0.0
 0104481,0.00221507,-0.00566279,0.00366918,0.00137612,-0.06355048,0.004
 06664,-0.00024079,0.00161839,-0.00076053,0.00101780,0.00276438,-0.0315
 3310,-0.00340794,-0.00391927,-0.00405511,0.00083041,0.00398975,0.00063
 251,0.00070123,0.00098736,0.00085830,-0.00824012,0.06473516,-0.0008323
 6,-0.00241969,-0.00060569,0.00054162,0.00170366,0.00141422,0.00013261,
 0.00007699,0.00002382,0.00011886,0.00010534,0.00102009,0.00175592,0.00
 659917,-0.03785257,-0.00086971,-0.00210153,0.00227199,-0.00234934,0.00
 594505,-0.00095620,-0.02418966,0.00513515,-0.19511787,0.00581361,0.000
 86529,-0.02501825,0.00090687,-0.00334175,-0.04101546,-0.00390201,-0.00
 573160,-0.00173674,0.00146874,0.00054710,0.00178972,-0.00089401,0.0021
 6062,0.00217068,-0.11689701,-0.00872588,0.36718364,-0.00022455,-0.0000
 7547,0.00025162,-0.00015757,-0.00039601,0.00003789,-0.00000679,0.00002
 678,-0.00015866,0.00003234,0.00006849,-0.00005530,0.00263280,-0.000609
 52,-0.00187810,-0.00040200,-0.00065676,0.00048736,-0.00021536,0.000537
 93,-0.00044848,-0.00514503,0.00043290,-0.00272979,0.00262284,-0.000142
 40,0.00146625,0.00302422,0.00049792,-0.00181474,-0.00038008,-0.0004880
 9,-0.00051833,-0.00014565,0.00016364,0.00020218,-0.00034865,0.00078273
 ,0.00050566,-0.47791977,0.00763437,0.13919587,0.47663324,0.00020374,-0
 .00063440,0.00036005,-0.00061653,-0.00057002,-0.00007053,0.00025367,0.
 00017813,-0.00032945,0.00001608,-0.00001111,-0.00013493,-0.00280282,0.
 00049622,0.00071669,0.00090784,0.00009915,0.00026625,0.00056848,-0.000
 01680,-0.00058793,-0.00142558,-0.00035972,0.00055600,0.00005836,0.0005
 9052,0.00003485,0.00218065,0.00031585,-0.00015817,-0.00052549,-0.00012
 993,0.00058486,0.00031307,-0.00053298,-0.00029097,-0.00057419,0.000396
 01,-0.00024553,0.00921922,-0.00372349,-0.00081793,-0.00777650,0.003902
 58,0.00004997,0.00022356,0.00023699,-0.00001752,0.00025142,-0.00005050
 ,-0.00016749,-0.00018084,-0.00008931,-0.00000933,-0.00009616,0.0000466
 4,0.00095652,0.00007239,0.00125554,-0.00123616,0.00090973,-0.00025081,
 -0.00047417,-0.00050080,0.00060017,0.04727589,-0.00082891,-0.01996774,
 -0.00043060,0.00035135,-0.00744105,0.00100900,-0.00032637,0.00157427,-
 0.00040336,0.00049303,0.00069783,-0.00022451,-0.00010343,-0.00011124,-
 0.00121965,-0.00066764,-0.00022392,0.08943484,0.00028597,-0.07357138,-
 0.13454344,0.00011671,0.09729449\\-0.00000157,0.00000044,0.00000195,-0
 .00000286,-0.00000124,0.00000163,-0.00000083,0.00000106,0.00000377,-0.
 00000106,-0.00000022,0.00000173,0.00000063,0.00000012,0.00000018,0.000
 00007,0.,-0.00000223,0.00000308,0.00000039,0.00000020,0.00000007,0.000
 00021,0.00000015,0.00000028,0.00000096,0.00000264,0.00000164,0.0000000
 6,-0.00000210,0.00000444,0.00000045,-0.00000108,0.00000116,0.00000043,
 -0.00000127,0.00000182,-0.00000036,-0.00000417,0.00000334,-0.00000090,
 -0.00000161,-0.00001021,-0.00000140,0.00000019\\\@
 Job cpu time:  0 days  0 hours 24 minutes 39.8 seconds.
 File lengths (MBytes):  RWF=   4882 Int=      0 D2E=      0 Chk=     14 Scr=      1
 Normal termination of Gaussian 03 at Mon Oct 19 14:18:46 2009.
