 Entering Gaussian System, Link 0=g03
 Input=TS1-freq.com
 Output=TS1-freq.log
 Initial command:
 /opt/g03/l1.exe /scratch/mrharper/Gau-1495.inp -scrdir=/scratch/mrharper/
 Entering Link 1 = /opt/g03/l1.exe PID=      1497.
  
 Copyright (c) 1988,1990,1992,1993,1995,1998,2003,2004, Gaussian, Inc.
                  All Rights Reserved.
  
 This is the Gaussian(R) 03 program.  It is based on the
 the Gaussian(R) 98 system (copyright 1998, Gaussian, Inc.),
 the Gaussian(R) 94 system (copyright 1995, Gaussian, Inc.),
 the Gaussian 92(TM) system (copyright 1992, Gaussian, Inc.),
 the Gaussian 90(TM) system (copyright 1990, Gaussian, Inc.),
 the Gaussian 88(TM) system (copyright 1988, Gaussian, Inc.),
 the Gaussian 86(TM) system (copyright 1986, Carnegie Mellon
 University), and the Gaussian 82(TM) system (copyright 1983,
 Carnegie Mellon University). Gaussian is a federally registered
 trademark of Gaussian, Inc.
  
 This software contains proprietary and confidential information,
 including trade secrets, belonging to Gaussian, Inc.
  
 This software is provided under written license and may be
 used, copied, transmitted, or stored only in accord with that
 written license.
  
 The following legend is applicable only to US Government
 contracts under FAR:
  
                    RESTRICTED RIGHTS LEGEND
  
 Use, reproduction and disclosure by the US Government is
 subject to restrictions as set forth in subparagraphs (a)
 and (c) of the Commercial Computer Software - Restricted
 Rights clause in FAR 52.227-19.
  
 Gaussian, Inc.
 340 Quinnipiac St., Bldg. 40, Wallingford CT 06492
  
  
 ---------------------------------------------------------------
 Warning -- This program may not be used in any manner that
 competes with the business of Gaussian, Inc. or will provide
 assistance to any competitor of Gaussian, Inc.  The licensee
 of this program is prohibited from giving any competitor of
 Gaussian, Inc. access to this program.  By using this program,
 the user acknowledges that Gaussian, Inc. is engaged in the
 business of creating and licensing software in the field of
 computational chemistry and represents and warrants to the
 licensee that it is not a competitor of Gaussian, Inc. and that
 it will not use this program in any manner prohibited above.
 ---------------------------------------------------------------
  

 Cite this work as:
 Gaussian 03, Revision D.01,
 M. J. Frisch, G. W. Trucks, H. B. Schlegel, G. E. Scuseria, 
 M. A. Robb, J. R. Cheeseman, J. A. Montgomery, Jr., T. Vreven, 
 K. N. Kudin, J. C. Burant, J. M. Millam, S. S. Iyengar, J. Tomasi, 
 V. Barone, B. Mennucci, M. Cossi, G. Scalmani, N. Rega, 
 G. A. Petersson, H. Nakatsuji, M. Hada, M. Ehara, K. Toyota, 
 R. Fukuda, J. Hasegawa, M. Ishida, T. Nakajima, Y. Honda, O. Kitao, 
 H. Nakai, M. Klene, X. Li, J. E. Knox, H. P. Hratchian, J. B. Cross, 
 V. Bakken, C. Adamo, J. Jaramillo, R. Gomperts, R. E. Stratmann, 
 O. Yazyev, A. J. Austin, R. Cammi, C. Pomelli, J. W. Ochterski, 
 P. Y. Ayala, K. Morokuma, G. A. Voth, P. Salvador, J. J. Dannenberg, 
 V. G. Zakrzewski, S. Dapprich, A. D. Daniels, M. C. Strain, 
 O. Farkas, D. K. Malick, A. D. Rabuck, K. Raghavachari, 
 J. B. Foresman, J. V. Ortiz, Q. Cui, A. G. Baboul, S. Clifford, 
 J. Cioslowski, B. B. Stefanov, G. Liu, A. Liashenko, P. Piskorz, 
 I. Komaromi, R. L. Martin, D. J. Fox, T. Keith, M. A. Al-Laham, 
 C. Y. Peng, A. Nanayakkara, M. Challacombe, P. M. W. Gill, 
 B. Johnson, W. Chen, M. W. Wong, C. Gonzalez, and J. A. Pople, 
 Gaussian, Inc., Wallingford CT, 2004.
 
 ******************************************
 Gaussian 03:  AM64L-G03RevD.01 13-Oct-2005
                19-Oct-2009 
 ******************************************
 %chk=TS1-freq.chk
 %mem=1000mb
 %nproc=8
 Will use up to    8 processors via shared memory.
 -------------------------------------------------------
 # freq geom=connectivity iop(7/33=1) b3lyp/cbsb7 nosymm
 -------------------------------------------------------
 1/10=4,30=1,38=1,57=2/1,3;
 2/15=1,17=6,18=5,40=1/2;
 3/5=4,6=6,7=700,11=2,16=1,25=1,30=1,74=-5/1,2,3;
 4//1;
 5/5=2,38=5/2;
 8/6=4,10=90,11=11/1;
 11/6=1,8=1,9=11,15=111,16=1,31=1/1,2,10;
 10/6=1,31=1/2;
 6/7=2,8=2,9=2,10=2,18=1,28=1/1;
 7/8=1,10=1,25=1,30=1,33=1/1,2,3,16;
 1/10=4,30=1/3;
 99//99;
 -------------------------------------
 TS: sBuOH = 1-butene + H2O: frequency
 -------------------------------------
 Symbolic Z-matrix:
 Charge =  0 Multiplicity = 1
 C
 H                    1    B1
 H                    1    B2       2    A1
 C                    1    B3       2    A2       3    D1       0
 H                    4    B4       1    A3       2    D2       0
 O                    4    B5       1    A4       2    D3       0
 H                    6    B6       4    A5       1    D4       0
 C                    4    B7       1    A6       6    D5       0
 H                    8    B8       4    A7       1    D6       0
 H                    8    B9       4    A8       1    D7       0
 C                    8    B10      4    A9       1    D8       0
 H                    11   B11      8    A10      4    D9       0
 H                    11   B12      8    A11      4    D10      0
 H                    11   B13      8    A12      4    D11      0
 H                    1    B14      4    A13      8    D12      0
       Variables:
  B1                    1.08622                  
  B2                    1.37164                  
  B3                    1.4212                   
  B4                    1.08741                  
  B5                    1.96541                  
  B6                    0.96858                  
  B7                    1.49646                  
  B8                    1.09392                  
  B9                    1.10069                  
  B10                   1.52775                  
  B11                   1.09465                  
  B12                   1.09283                  
  B13                   1.09085                  
  B14                   1.08547                  
  A1                  111.74433                  
  A2                  117.63178                  
  A3                  118.51107                  
  A4                   90.66069                  
  A5                  114.09953                  
  A6                  122.94843                  
  A7                  108.71245                  
  A8                  105.46413                  
  A9                  115.14879                  
  A10                 111.3075                   
  A11                 111.0134                   
  A12                 109.30447                  
  A13                 117.89036                  
  D1                  -86.26538                  
  D2                 -155.72254                  
  D3                  106.69406                  
  D4                  106.41945                  
  D5                 -102.84206                  
  D6                   32.0877                   
  D7                  -81.35424                  
  D8                  156.96748                  
  D9                   57.99601                  
  D10                 177.97753                  
  D11                 -61.66909                  
  D12                 149.95282                  
 

 GradGradGradGradGradGradGradGradGradGradGradGradGradGradGradGradGradGrad
 Berny optimization.
 Initialization pass.
                       ----------------------------
                       !    Initial Parameters    !
                       ! (Angstroms and Degrees)  !
 ----------------------                            ----------------------
 !      Name          Value   Derivative information (Atomic Units)     !
 ------------------------------------------------------------------------
 !       B1          1.0862   calculate D2E/DX2 analytically            !
 !       B2          1.3716   calculate D2E/DX2 analytically            !
 !       B3          1.4212   calculate D2E/DX2 analytically            !
 !       B4          1.0874   calculate D2E/DX2 analytically            !
 !       B5          1.9654   calculate D2E/DX2 analytically            !
 !       B6          0.9686   calculate D2E/DX2 analytically            !
 !       B7          1.4965   calculate D2E/DX2 analytically            !
 !       B8          1.0939   calculate D2E/DX2 analytically            !
 !       B9          1.1007   calculate D2E/DX2 analytically            !
 !       B10         1.5278   calculate D2E/DX2 analytically            !
 !       B11         1.0947   calculate D2E/DX2 analytically            !
 !       B12         1.0928   calculate D2E/DX2 analytically            !
 !       B13         1.0908   calculate D2E/DX2 analytically            !
 !       B14         1.0855   calculate D2E/DX2 analytically            !
 !       A1        111.7443   calculate D2E/DX2 analytically            !
 !       A2        117.6318   calculate D2E/DX2 analytically            !
 !       A3        118.5111   calculate D2E/DX2 analytically            !
 !       A4         90.6607   calculate D2E/DX2 analytically            !
 !       A5        114.0995   calculate D2E/DX2 analytically            !
 !       A6        122.9484   calculate D2E/DX2 analytically            !
 !       A7        108.7125   calculate D2E/DX2 analytically            !
 !       A8        105.4641   calculate D2E/DX2 analytically            !
 !       A9        115.1488   calculate D2E/DX2 analytically            !
 !       A10       111.3075   calculate D2E/DX2 analytically            !
 !       A11       111.0134   calculate D2E/DX2 analytically            !
 !       A12       109.3045   calculate D2E/DX2 analytically            !
 !       A13       117.8904   calculate D2E/DX2 analytically            !
 !       D1        -86.2654   calculate D2E/DX2 analytically            !
 !       D2       -155.7225   calculate D2E/DX2 analytically            !
 !       D3        106.6941   calculate D2E/DX2 analytically            !
 !       D4        106.4194   calculate D2E/DX2 analytically            !
 !       D5       -102.8421   calculate D2E/DX2 analytically            !
 !       D6         32.0877   calculate D2E/DX2 analytically            !
 !       D7        -81.3542   calculate D2E/DX2 analytically            !
 !       D8        156.9675   calculate D2E/DX2 analytically            !
 !       D9         57.996    calculate D2E/DX2 analytically            !
 !       D10       177.9775   calculate D2E/DX2 analytically            !
 !       D11       -61.6691   calculate D2E/DX2 analytically            !
 !       D12       149.9528   calculate D2E/DX2 analytically            !
 ------------------------------------------------------------------------
 Trust Radius=3.00D-01 FncErr=1.00D-07 GrdErr=1.00D-07
 Number of steps in this run=   2 maximum allowed number of steps=   2.
 GradGradGradGradGradGradGradGradGradGradGradGradGradGradGradGradGradGrad

                          Input orientation:                          
 ---------------------------------------------------------------------
 Center     Atomic     Atomic              Coordinates (Angstroms)
 Number     Number      Type              X           Y           Z
 ---------------------------------------------------------------------
    1          6             0        0.000000    0.000000    0.000000
    2          1             0        0.000000    0.000000    1.086220
    3          1             0        1.274042    0.000000   -0.508145
    4          6             0        0.082012    1.256431   -0.659134
    5          1             0       -0.306386    1.337781   -1.671548
    6          8             0        1.944712    0.892580   -1.169803
    7          1             0        2.063580    0.680768   -2.107430
    8          6             0        0.251012    2.550341    0.073423
    9          1             0        0.841401    2.368045    0.976130
   10          1             0       -0.757205    2.826228    0.418244
   11          6             0        0.856309    3.687303   -0.748141
   12          1             0        0.254727    3.899212   -1.637778
   13          1             0        0.916146    4.606697   -0.160424
   14          1             0        1.859299    3.404740   -1.070816
   15          1             0       -0.587305   -0.782580   -0.469997
 ---------------------------------------------------------------------
                    Distance matrix (angstroms):
                    1          2          3          4          5
     1  C    0.000000
     2  H    1.086220   0.000000
     3  H    1.371639   2.040877   0.000000
     4  C    1.421198   2.152116   1.738491   0.000000
     5  H    2.162777   3.080392   2.375062   1.087407   0.000000
     6  O    2.438656   3.109380   1.297801   1.965406   2.348913
     7  H    3.027056   3.862798   1.909065   2.521024   2.497679
     8  C    2.563715   2.755540   2.808745   1.496463   2.196797
     9  H    2.696001   2.515495   2.828054   2.118123   3.064157
    10  H    2.955648   3.001186   3.601628   2.080695   2.604984
    11  C    3.858651   4.206465   3.718642   2.552762   2.779352
    12  H    4.236869   4.763287   4.185562   2.823449   2.622388
    13  H    4.699650   4.859537   4.633644   3.488376   3.803143
    14  H    4.024412   4.438699   3.500197   2.818414   3.053423
    15  H    1.085475   1.838251   2.019529   2.154374   2.453278
                    6          7          8          9         10
     6  O    0.000000
     7  H    0.968575   0.000000
     8  C    2.676266   3.396590   0.000000
     9  H    2.828307   3.721420   1.093924   0.000000
    10  H    3.682560   4.351880   1.100690   1.754055   0.000000
    11  C    3.028679   3.513462   1.527755   2.171123   2.169178
    12  H    3.480645   3.721680   2.178916   3.085640   2.530321
    13  H    3.983900   4.529940   2.173865   2.511753   2.510981
    14  H    2.515560   2.921698   2.150782   2.510147   3.065627
    15  H    3.115605   3.442349   3.479431   3.749523   3.720395
                   11         12         13         14         15
    11  C    0.000000
    12  H    1.094651   0.000000
    13  H    1.092830   1.766518   0.000000
    14  H    1.090848   1.772174   1.778497   0.000000
    15  H    4.705448   4.898154   5.603615   4.886768   0.000000
 Symmetry turned off by external request.
 Stoichiometry    C4H10O
 Framework group  C1[X(C4H10O)]
 Deg. of freedom    39
 Full point group                 C1
 Rotational constants (GHZ):      6.8964592      3.4605475      2.5661756
 Standard basis: CBSB7 (5D, 7F)
 Integral buffers will be    131072 words long.
 Raffenetti 2 integral format.
 Two-electron integral symmetry is turned off.
   150 basis functions,   240 primitive gaussians,   155 cartesian basis functions
    21 alpha electrons       21 beta electrons
       nuclear repulsion energy       188.6525856320 Hartrees.
 NAtoms=   15 NActive=   15 NUniq=   15 SFac= 7.50D-01 NAtFMM=   80 NAOKFM=F Big=F
 One-electron integrals computed using PRISM.
 NBasis=   150 RedAO= T  NBF=   150
 NBsUse=   150 1.00D-06 NBFU=   150
 Harris functional with IExCor=  402 diagonalized for initial guess.
 ExpMin= 1.03D-01 ExpMax= 8.59D+03 ExpMxC= 1.30D+03 IAcc=1 IRadAn=         1 AccDes= 1.00D-06
 HarFok:  IExCor= 402 AccDes= 1.00D-06 IRadAn=         1 IDoV=1
 ScaDFX=  1.000000  1.000000  1.000000  1.000000
 Requested convergence on RMS density matrix=1.00D-08 within 128 cycles.
 Requested convergence on MAX density matrix=1.00D-06.
 Requested convergence on             energy=1.00D-06.
 No special actions if energy rises.
 Keep R1 integrals in memory in canonical form, NReq=    76037799.
 Integral accuracy reduced to 1.0D-05 until final iterations.
 Initial convergence to 1.0D-05 achieved.  Increase integral accuracy.
 SCF Done:  E(RB+HF-LYP) =  -233.638832072     A.U. after   15 cycles
             Convg  =    0.4755D-08             -V/T =  2.0042
             S**2   =   0.0000
 Range of M.O.s used for correlation:     1   150
 NBasis=   150 NAE=    21 NBE=    21 NFC=     0 NFV=     0
 NROrb=    150 NOA=    21 NOB=    21 NVA=   129 NVB=   129
 Symmetrizing basis deriv contribution to polar:
 IMax=3 JMax=2 DiffMx= 0.00D+00
 G2DrvN: will do   16 centers at a time, making    1 passes doing MaxLOS=2.
 FoFDir/FoFCou used for L=0 through L=2.
 DoAtom=TTTTTTTTTTTTTTT
          Differentiating once with respect to electric field.
                with respect to dipole field.
          Differentiating once with respect to nuclear coordinates.
          Store integrals in memory, NReq=    73914613.
          There are  48 degrees of freedom in the 1st order CPHF.
    45 vectors were produced by pass  0.
 AX will form  45 AO Fock derivatives at one time.
    45 vectors were produced by pass  1.
    45 vectors were produced by pass  2.
    45 vectors were produced by pass  3.
    45 vectors were produced by pass  4.
    24 vectors were produced by pass  5.
     3 vectors were produced by pass  6.
 Inv2:  IOpt= 1 Iter= 1 AM= 2.21D-15 Conv= 1.00D-12.
 Inverted reduced A of dimension  252 with in-core refinement.
 Isotropic polarizability for W=    0.000000       57.61 Bohr**3.
 End of Minotr Frequency-dependent properties file   721 does not exist.

 **********************************************************************

            Population analysis using the SCF density.

 **********************************************************************

 Alpha  occ. eigenvalues --  -19.08414 -10.23952 -10.18152 -10.15972 -10.14047
 Alpha  occ. eigenvalues --   -0.95266  -0.81204  -0.73872  -0.63730  -0.57341
 Alpha  occ. eigenvalues --   -0.50393  -0.45914  -0.44232  -0.43780  -0.38526
 Alpha  occ. eigenvalues --   -0.37443  -0.35550  -0.35155  -0.33952  -0.30354
 Alpha  occ. eigenvalues --   -0.21940
 Alpha virt. eigenvalues --   -0.02166   0.03751   0.06381   0.07105   0.08248
 Alpha virt. eigenvalues --    0.10456   0.12003   0.12445   0.13453   0.15627
 Alpha virt. eigenvalues --    0.18418   0.20287   0.23690   0.24136   0.29236
 Alpha virt. eigenvalues --    0.30684   0.31097   0.31954   0.35158   0.39312
 Alpha virt. eigenvalues --    0.42296   0.45220   0.46886   0.51926   0.54202
 Alpha virt. eigenvalues --    0.55166   0.55666   0.56399   0.57753   0.59202
 Alpha virt. eigenvalues --    0.59833   0.60817   0.61147   0.62284   0.63536
 Alpha virt. eigenvalues --    0.67818   0.73328   0.82508   0.84869   0.88360
 Alpha virt. eigenvalues --    0.92280   0.94447   1.01011   1.02760   1.10606
 Alpha virt. eigenvalues --    1.13227   1.20282   1.23858   1.30563   1.32313
 Alpha virt. eigenvalues --    1.33954   1.39122   1.41339   1.44106   1.45369
 Alpha virt. eigenvalues --    1.46974   1.48021   1.49713   1.53233   1.55267
 Alpha virt. eigenvalues --    1.57474   1.59096   1.61441   1.63636   1.69791
 Alpha virt. eigenvalues --    1.72161   1.73732   1.75653   1.78080   1.80736
 Alpha virt. eigenvalues --    1.83581   1.88202   1.90173   1.94495   1.98548
 Alpha virt. eigenvalues --    2.03525   2.04457   2.04860   2.07231   2.12201
 Alpha virt. eigenvalues --    2.14000   2.20192   2.23066   2.24899   2.30712
 Alpha virt. eigenvalues --    2.34419   2.38924   2.42210   2.44057   2.46409
 Alpha virt. eigenvalues --    2.48865   2.51318   2.53556   2.55923   2.56508
 Alpha virt. eigenvalues --    2.60469   2.63098   2.65059   2.69491   2.72214
 Alpha virt. eigenvalues --    2.78174   2.79861   2.82759   2.90685   2.94506
 Alpha virt. eigenvalues --    2.99707   3.06583   3.13111   3.16882   3.28661
 Alpha virt. eigenvalues --    3.34653   3.61070   3.62109   3.74368   3.79233
 Alpha virt. eigenvalues --    3.80405   3.82179   3.83832   4.00337   4.17444
 Alpha virt. eigenvalues --    4.38542   4.91292   5.05697   5.53448  23.76497
 Alpha virt. eigenvalues --   23.86566  23.94188  23.99701  49.90295
          Condensed to atoms (all electrons):
              1          2          3          4          5          6
     1  C    5.189488   0.413603   0.200401   0.436563  -0.031874  -0.181841
     2  H    0.413603   0.546925  -0.003440  -0.044973   0.006231   0.003462
     3  H    0.200401  -0.003440   0.473183  -0.059890   0.007833   0.127478
     4  C    0.436563  -0.044973  -0.059890   5.050262   0.388125   0.084038
     5  H   -0.031874   0.006231   0.007833   0.388125   0.558836  -0.015505
     6  O   -0.181841   0.003462   0.127478   0.084038  -0.015505   8.271925
     7  H    0.024548  -0.000298  -0.013180  -0.000588   0.000519   0.252157
     8  C   -0.056814  -0.005207   0.007214   0.331775  -0.035396  -0.024256
     9  H   -0.002415   0.003476   0.002196  -0.037676   0.007344  -0.000738
    10  H   -0.002080   0.000318  -0.000845  -0.035211  -0.001249   0.002905
    11  C    0.004472   0.000473  -0.001764  -0.058423  -0.006280  -0.007899
    12  H    0.000195   0.000017  -0.000024  -0.005703   0.004648  -0.000602
    13  H   -0.000309  -0.000031  -0.000033   0.008056  -0.000204   0.000094
    14  H    0.001373  -0.000115  -0.000737  -0.002047   0.000298   0.023375
    15  H    0.404325  -0.032421  -0.007469  -0.033172  -0.010434   0.004488
              7          8          9         10         11         12
     1  C    0.024548  -0.056814  -0.002415  -0.002080   0.004472   0.000195
     2  H   -0.000298  -0.005207   0.003476   0.000318   0.000473   0.000017
     3  H   -0.013180   0.007214   0.002196  -0.000845  -0.001764  -0.000024
     4  C   -0.000588   0.331775  -0.037676  -0.035211  -0.058423  -0.005703
     5  H    0.000519  -0.035396   0.007344  -0.001249  -0.006280   0.004648
     6  O    0.252157  -0.024256  -0.000738   0.002905  -0.007899  -0.000602
     7  H    0.510382   0.000084  -0.000227  -0.000269   0.000384   0.000053
     8  C    0.000084   4.901121   0.407853   0.385126   0.355417  -0.036365
     9  H   -0.000227   0.407853   0.566011  -0.030569  -0.035966   0.008134
    10  H   -0.000269   0.385126  -0.030569   0.591950  -0.032069  -0.006546
    11  C    0.000384   0.355417  -0.035966  -0.032069   4.893929   0.400986
    12  H    0.000053  -0.036365   0.008134  -0.006546   0.400986   0.601442
    13  H    0.000079  -0.030686  -0.005239  -0.004785   0.397483  -0.031318
    14  H   -0.000530  -0.040016  -0.005810   0.009272   0.390049  -0.029273
    15  H   -0.001089   0.006057  -0.000062  -0.000445  -0.000236   0.000012
             13         14         15
     1  C   -0.000309   0.001373   0.404325
     2  H   -0.000031  -0.000115  -0.032421
     3  H   -0.000033  -0.000737  -0.007469
     4  C    0.008056  -0.002047  -0.033172
     5  H   -0.000204   0.000298  -0.010434
     6  O    0.000094   0.023375   0.004488
     7  H    0.000079  -0.000530  -0.001089
     8  C   -0.030686  -0.040016   0.006057
     9  H   -0.005239  -0.005810  -0.000062
    10  H   -0.004785   0.009272  -0.000445
    11  C    0.397483   0.390049  -0.000236
    12  H   -0.031318  -0.029273   0.000012
    13  H    0.584532  -0.023125   0.000019
    14  H   -0.023125   0.548348  -0.000073
    15  H    0.000019  -0.000073   0.557328
 Mulliken atomic charges:
              1
     1  C   -0.399635
     2  H    0.111977
     3  H    0.269077
     4  C   -0.021135
     5  H    0.127109
     6  O   -0.539082
     7  H    0.227977
     8  C   -0.165906
     9  H    0.123687
    10  H    0.124498
    11  C   -0.300557
    12  H    0.094343
    13  H    0.105466
    14  H    0.129010
    15  H    0.113171
 Sum of Mulliken charges=   0.00000
 Atomic charges with hydrogens summed into heavy atoms:
              1
     1  C   -0.174487
     2  H    0.000000
     3  H    0.000000
     4  C    0.105974
     5  H    0.000000
     6  O   -0.042028
     7  H    0.000000
     8  C    0.082279
     9  H    0.000000
    10  H    0.000000
    11  C    0.028263
    12  H    0.000000
    13  H    0.000000
    14  H    0.000000
    15  H    0.000000
 Sum of Mulliken charges=   0.00000
 APT atomic charges:
              1
     1  C   -0.396977
     2  H    0.023442
     3  H    0.337745
     4  C    0.599784
     5  H   -0.035142
     6  O   -0.743426
     7  H    0.181511
     8  C    0.018713
     9  H   -0.013071
    10  H   -0.026038
    11  C    0.068737
    12  H   -0.026804
    13  H   -0.026312
    14  H    0.020365
    15  H    0.017472
 Sum of APT charges=   0.00000
 APT Atomic charges with hydrogens summed into heavy atoms:
              1
     1  C   -0.356063
     2  H    0.000000
     3  H    0.000000
     4  C    0.564641
     5  H    0.000000
     6  O   -0.224170
     7  H    0.000000
     8  C   -0.020395
     9  H    0.000000
    10  H    0.000000
    11  C    0.035986
    12  H    0.000000
    13  H    0.000000
    14  H    0.000000
    15  H    0.000000
 Sum of APT charges=   0.00000
 Electronic spatial extent (au):  <R**2>=  1069.8131
 Charge=     0.0000 electrons
 Dipole moment (field-independent basis, Debye):
    X=    -1.5381    Y=     0.5640    Z=    -0.8985  Tot=     1.8684
 Quadrupole moment (field-independent basis, Debye-Ang):
   XX=   -38.4388   YY=   -32.2333   ZZ=   -29.2056
   XY=    -2.2023   XZ=    -0.0375   YZ=     0.3917
 Traceless Quadrupole moment (field-independent basis, Debye-Ang):
   XX=    -5.1462   YY=     1.0593   ZZ=     4.0869
   XY=    -2.2023   XZ=    -0.0375   YZ=     0.3917
 Octapole moment (field-independent basis, Debye-Ang**2):
  XXX=   -73.3335  YYY=  -167.7335  ZZZ=    39.5000  XYY=   -24.7311
  XXY=   -63.2388  XXZ=    15.9460  XZZ=   -14.8561  YZZ=   -55.0239
  YYZ=    19.3335  XYZ=     2.4226
 Hexadecapole moment (field-independent basis, Debye-Ang**3):
 XXXX=  -265.6922 YYYY= -1024.2915 ZZZZ=  -139.4877 XXXY=  -133.9198
 XXXZ=    59.6107 YYYX=  -122.7028 YYYZ=   107.0203 ZZZX=    42.3307
 ZZZY=    86.7819 XXYY=  -219.0687 XXZZ=   -53.9480 YYZZ=  -200.3892
 XXYZ=    35.7621 YYXZ=    26.9068 ZZXY=   -38.7018
 N-N= 1.886525856320D+02 E-N=-9.220665642696D+02  KE= 2.326595618042D+02
  Exact polarizability:  54.582   1.814  64.228  -7.647  -2.639  54.018
 Approx polarizability:  86.636  -0.134  80.524 -12.241  -4.572  78.003
 Use density number 0.
 Entering OneElI...
 Calculate overlap and kinetic energy integrals
    NBasis = 155  MinDer = 2  MaxDer = 2
 Requested accuracy = 0.1000D-12
 PrsmSu:  NPrtUS=   1 ThrOK=F
 PRISM was handed   130837846 working-precision words and  2145 shell-pairs
 Entering OneElI...
 Calculate potential energy integrals
    NBasis = 155  MinDer = 2  MaxDer = 2
 Requested accuracy = 0.1000D-12
 PrsmSu:  NPrtUS=   8 ThrOK=T
 PRISM was handed    16317858 working-precision words and  2054 shell-pairs
 PRISM was handed    16317858 working-precision words and  2054 shell-pairs
 PRISM was handed    16317858 working-precision words and  2054 shell-pairs
 PRISM was handed    16317858 working-precision words and  2054 shell-pairs
 PRISM was handed    16317858 working-precision words and  2054 shell-pairs
 PRISM was handed    16317858 working-precision words and  2054 shell-pairs
 PRISM was handed    16317858 working-precision words and  2054 shell-pairs
 PRISM was handed    16317858 working-precision words and  2054 shell-pairs
 Polarizability after L701:
                1             2             3
      1  0.545824D+02
      2  0.181422D+01  0.642283D+02
      3 -0.764715D+01 -0.263859D+01  0.540184D+02
 Dipole Derivatives after L701:
               1            2            3            4            5
      1-0.498218D+00 0.481343D-01 0.188538D+00 0.100107D+00-0.390532D-01
      2 0.355064D+00-0.593048D+00 0.125232D+00-0.103497D+00 0.748616D-01
      3 0.763441D-01 0.211658D+00-0.996655D-01 0.338305D-01-0.544026D-01
               6            7            8            9           10
      1 0.281616D-02 0.667533D+00 0.192164D+00-0.307814D+00 0.594133D+00
      2 0.150480D-01-0.563854D-02 0.838063D-01-0.184998D-01 0.142092D+00
      3-0.104644D+00-0.245848D+00-0.985384D-01 0.261897D+00-0.283277D+00
              11           12           13           14           15
      1-0.253818D-01-0.276657D+00-0.219152D-01 0.367456D-01-0.408359D-01
      2 0.750064D+00-0.728813D-01 0.359369D-02 0.159128D-01 0.963759D-02
      3-0.509015D-01 0.455155D+00-0.136416D-01 0.116281D-01-0.994250D-01
              16           17           18           19           20
      1-0.118538D+01-0.212678D+00 0.436931D+00 0.227291D+00 0.295230D-03
      2-0.132002D+00-0.536191D+00 0.102370D+00-0.587442D-01 0.248692D+00
      3 0.450644D+00 0.135696D+00-0.508704D+00-0.446916D-02-0.560857D-01
              21           22           23           24           25
      1 0.199095D-01 0.693530D-01 0.365779D-01 0.657238D-02 0.318396D-01
      2-0.191170D-01 0.604950D-01-0.349117D-01-0.114394D+00-0.266217D-01
      3 0.685503D-01 0.329873D-01-0.797641D-01 0.216990D-01-0.827329D-01
              26           27           28           29           30
      1 0.148722D-01-0.577617D-01-0.934009D-01 0.455098D-01 0.692278D-01
      2-0.546254D-02 0.492917D-01-0.148058D-01-0.290428D-01-0.156505D-01
      3 0.668422D-01-0.655888D-01 0.664314D-01-0.220349D-01 0.443296D-01
              31           32           33           34           35
      1 0.489388D-01-0.333659D-01 0.620901D-01-0.198791D-01-0.135181D-01
      2-0.456763D-01 0.536841D-01-0.170738D-01 0.226249D-01 0.413591D-01
      3 0.505626D-01 0.326599D-01 0.103589D+00-0.115388D+00 0.200134D-01
              36           37           38           39           40
      1-0.872602D-01 0.824992D-01-0.275861D-01-0.760250D-02-0.580117D-01
      2 0.706172D-01-0.183864D-01-0.152403D+00-0.107984D+00-0.280538D-02
      3-0.101892D+00 0.241331D-02-0.698287D-01-0.903159D-02 0.481508D-01
              41           42           43           44           45
      1 0.675156D-01 0.440094D-01 0.551135D-01-0.902306D-01-0.521632D-01
      2 0.845847D-01 0.272888D-01-0.175692D+00-0.190456D-02-0.338850D-01
      3-0.160215D-01 0.345214D-01-0.160073D-01-0.309198D-01-0.791622D-03
 Hessian after L701:
                1             2             3             4             5
      1  0.140991D+02
      2 -0.174211D+01  0.850788D+01
      3  0.200323D+00  0.193205D+01  0.110483D+02
      4 -0.362816D+01 -0.198993D-01 -0.226726D-01  0.355321D+01
      5 -0.283101D-01 -0.366856D+01 -0.198840D+00  0.155263D-01  0.353721D+01
      6  0.624585D-01 -0.996912D-02 -0.100515D+01  0.125944D+00  0.285105D+00
      7  0.223300D-01  0.397579D+00 -0.895115D+00  0.881065D-02 -0.264046D-02
      8  0.202212D+00 -0.195913D+01 -0.442223D-01 -0.159461D-03 -0.388782D-02
      9 -0.853063D+00 -0.119303D+00 -0.149024D+01  0.816085D-02 -0.439850D-02
     10 -0.798149D+01  0.741803D+00 -0.630427D-01  0.807339D-01 -0.149942D-01
     11  0.771095D+00 -0.144796D+01 -0.282342D+01 -0.184173D-01  0.554076D-01
     12 -0.104929D+00 -0.284149D+01 -0.541651D+01  0.284891D-01  0.923674D-01
     13  0.967385D-01 -0.610378D-01  0.865413D-01 -0.163132D-01 -0.917877D-02
     14 -0.577654D-01  0.435553D-02  0.494067D-01 -0.118867D-02 -0.548983D-02
     15  0.104772D+00  0.123126D-01  0.840107D-01  0.533581D-02 -0.454808D-01
     16  0.298565D+00 -0.570530D+00  0.344334D+00 -0.129753D-02  0.316716D-01
     17 -0.332544D+00  0.137742D+00  0.275137D+00  0.277658D-01 -0.372741D-01
     18  0.315807D+00  0.425621D+00 -0.120438D-01 -0.799792D-01 -0.382035D-01
     19  0.473821D-01  0.773616D-01 -0.182456D+00 -0.111995D-02  0.107278D-04
     20  0.450123D-01 -0.717244D-01 -0.612685D-01  0.636028D-03 -0.185948D-02
     21 -0.204713D+00 -0.104484D+00  0.144296D+00 -0.327842D-02 -0.791029D-03
     22 -0.901968D-02  0.124737D+00 -0.970655D-02 -0.273132D-01  0.226178D-02
     23  0.821146D-01  0.263381D+00  0.122731D+00 -0.558380D-02  0.973449D-02
     24 -0.950465D-03  0.202277D-01 -0.959524D-01  0.369846D-02  0.336708D-02
     25 -0.209857D-01  0.321999D-01  0.173062D-01 -0.906456D-02  0.228163D-01
     26  0.530210D-02  0.119256D-01  0.165795D-01  0.164511D-01  0.312230D-01
     27  0.133596D-01  0.518943D-01 -0.731367D-02  0.273607D-02  0.891912D-02
     28  0.500820D-02 -0.576747D-01 -0.132383D-01 -0.277666D-02 -0.906409D-02
     29 -0.336975D-01  0.264077D-01  0.102153D-01 -0.376003D-02  0.945513D-02
     30 -0.108985D-01  0.165421D-01 -0.216388D-01  0.204811D-03 -0.996535D-03
     31 -0.901752D-01  0.867414D-01 -0.252767D-01 -0.122298D-01  0.762622D-02
     32  0.989788D-01  0.218913D+00 -0.867039D-01  0.854524D-02  0.203260D-01
     33 -0.244182D-01 -0.795833D-01 -0.113029D+00 -0.456246D-02 -0.157260D-01
     34 -0.112900D-01 -0.834068D-02  0.343001D-02 -0.115967D-02 -0.117457D-02
     35  0.152399D-02  0.234898D-01 -0.152012D-01  0.228915D-03  0.203849D-02
     36 -0.781325D-03 -0.276488D-01 -0.914144D-03 -0.143273D-03 -0.387455D-02
     37 -0.636722D-02  0.264206D-02 -0.757428D-03 -0.946516D-03  0.645742D-03
     38  0.387526D-02  0.203029D-01  0.139218D-02  0.623851D-03  0.360925D-02
     39  0.818927D-03  0.839988D-02 -0.554106D-02  0.244160D-03  0.644896D-03
     40 -0.514108D-03  0.377920D-01 -0.100294D-01  0.259588D-03  0.298247D-02
     41  0.193147D-01  0.322002D-01 -0.147348D-01  0.534269D-03 -0.525723D-03
     42 -0.854165D-02 -0.196121D-01 -0.118789D-01 -0.772706D-03 -0.142726D-02
     43 -0.282110D+01  0.958738D+00  0.570359D+00  0.573666D-01 -0.181789D-01
     44  0.965001D+00 -0.209922D+01  0.836877D+00 -0.213029D-01  0.485869D-01
     45  0.510756D+00  0.735039D+00 -0.309636D+01 -0.634047D-01 -0.806653D-01
                6             7             8             9            10
      6  0.825816D+00
      7 -0.288587D-01  0.416390D+00
      8 -0.625841D-02 -0.885163D+00  0.262831D+01
      9  0.223729D-01  0.165142D+01  0.706201D+00  0.284161D+01
     10  0.946970D-02  0.127896D+00 -0.202185D+00 -0.347364D-01  0.164476D+02
     11  0.133658D-01 -0.314674D+00  0.410237D+00 -0.673452D-01 -0.133545D+01
     12  0.499804D-01  0.804910D-02 -0.101225D+00 -0.361092D-01 -0.981174D-01
     13  0.214658D-01  0.215392D-01 -0.543391D-01  0.405070D-01 -0.369217D+01
     14 -0.425385D-01 -0.431350D-01  0.670689D-02 -0.299859D-01 -0.784751D-01
     15  0.916445D-01  0.572040D-01 -0.422013D-01 -0.356919D-02  0.850857D+00
     16 -0.111213D+00 -0.552423D+00  0.104490D+01 -0.857935D+00  0.799590D+00
     17 -0.534900D-01  0.930584D+00 -0.121727D+01 -0.558726D+00  0.295516D+00
     18  0.879481D-01 -0.843186D+00 -0.574326D+00 -0.120382D+01 -0.948978D+00
     19 -0.381781D-02  0.128470D-01 -0.316115D-01  0.601846D-01 -0.129855D-01
     20  0.202320D-02 -0.409247D-02  0.418789D-01  0.488125D-01 -0.427232D-01
     21  0.149759D-01  0.424226D-01  0.579588D-01 -0.765836D-01 -0.459471D-01
     22 -0.857657D-02 -0.212014D-01 -0.651215D-01 -0.102969D-02 -0.577459D+01
     23 -0.350807D-01 -0.769315D-01  0.708793D-01  0.661791D-02  0.617689D+00
     24 -0.149080D-03  0.991180D-03 -0.161807D-01 -0.552420D-01  0.271864D+00
     25 -0.123898D-01 -0.106371D-01 -0.489930D-03  0.116373D-02  0.389154D-01
     26 -0.125114D-01 -0.601177D-02  0.860591D-02  0.116832D-01 -0.564890D-01
     27 -0.277067D-01 -0.578502D-02  0.164664D-01  0.337093D-02 -0.235600D-01
     28  0.127984D-01  0.479964D-03 -0.105757D-02 -0.141625D-02  0.454469D-01
     29 -0.127096D-01 -0.195274D-02 -0.112421D-02  0.759449D-03  0.383730D-01
     30 -0.636839D-02  0.235552D-03  0.802530D-03 -0.660296D-03  0.234159D-01
     31 -0.516671D-02 -0.134393D-01  0.653789D-02 -0.201350D-02 -0.776388D-01
     32 -0.341738D-01  0.561159D-02 -0.553660D-02  0.422098D-02  0.185612D-01
     33  0.257355D-02 -0.108843D-02 -0.280449D-02 -0.597458D-02  0.193029D-01
     34  0.404675D-02 -0.479665D-03 -0.147299D-02 -0.235435D-03 -0.142959D-01
     35 -0.609129D-02 -0.184665D-02  0.188798D-02  0.463954D-04 -0.543699D-02
     36  0.811995D-02  0.188702D-02 -0.260350D-02 -0.177394D-02  0.509527D-02
     37 -0.104809D-02 -0.193278D-02 -0.311741D-03  0.608447D-03 -0.339593D-01
     38 -0.901323D-02 -0.157847D-02  0.251135D-02  0.210205D-02  0.461121D-01
     39 -0.386623D-02  0.163801D-04  0.113296D-02 -0.384700D-03  0.919830D-02
     40 -0.938083D-02 -0.279403D-02  0.194557D-02  0.227090D-02  0.899864D-02
     41 -0.141280D-02 -0.705556D-03 -0.328446D-02  0.224082D-02  0.467343D-02
     42  0.324539D-02  0.237799D-03 -0.137354D-02 -0.921506D-03 -0.315890D-02
     43 -0.557320D-01 -0.738564D-02 -0.136870D-01 -0.138877D-01  0.379544D-01
     44 -0.772452D-01  0.495673D-02  0.192263D-01 -0.292584D-02 -0.269766D-01
     45 -0.634409D-01  0.115686D-01  0.863407D-02  0.793068D-02  0.283370D-01
               11            12            13            14            15
     11  0.788317D+01
     12  0.775189D+00  0.130005D+02
     13 -0.100143D+00  0.981620D+00  0.363596D+01
     14 -0.410238D+01 -0.153142D+00  0.163218D+00  0.409059D+01
     15 -0.196487D+00 -0.168071D+01 -0.116050D+01  0.186835D+00  0.137522D+01
     16  0.387862D+00 -0.105226D+01 -0.128764D+00  0.138782D-01  0.515302D-01
     17 -0.194859D+01 -0.136574D-02  0.267900D-01  0.733451D-02 -0.112807D-01
     18 -0.775758D-01 -0.138276D+01  0.567515D-04 -0.345166D-02  0.444045D-01
     19 -0.197732D-01 -0.388994D-01  0.105056D-01 -0.456479D-02  0.732359D-02
     20 -0.354849D-01  0.307852D-01 -0.878703D-02 -0.493132D-02 -0.416755D-02
     21  0.327096D-01  0.491245D-01 -0.170477D-01  0.439369D-02 -0.191318D-01
     22  0.547950D+00  0.242255D+00  0.755630D-01 -0.186440D-01  0.161301D-01
     23 -0.150183D+01  0.217980D+01 -0.141522D-01  0.373533D-01 -0.186756D-01
     24  0.217125D+01 -0.462562D+01 -0.135232D-01 -0.749735D-01  0.399357D-01
     25 -0.722045D-02  0.135064D-01 -0.803156D-03  0.164249D-01  0.551938D-01
     26  0.398412D-01 -0.401250D-01  0.186046D-01 -0.173759D-01  0.378560D-01
     27  0.152223D-01  0.111038D+00  0.542836D-01  0.363671D-01  0.962633D-01
     28 -0.148786D-01  0.105931D-02 -0.379825D-02 -0.118064D-02 -0.141544D-01
     29  0.840843D-01  0.122085D-01  0.657747D-03 -0.219058D-02  0.497960D-02
     30  0.233400D-01  0.363018D-01  0.112721D-02 -0.147909D-02  0.562425D-02
     31  0.456378D-01 -0.625005D-03 -0.852317D-02  0.263412D-02  0.842221D-02
     32  0.352476D+00  0.245990D-01  0.115965D-01 -0.173386D-01  0.144733D-01
     33  0.766038D-01 -0.928382D-01  0.356850D-02 -0.711661D-02 -0.126153D-02
     34 -0.234596D-01  0.124703D-01 -0.179428D-01  0.749995D-02 -0.395499D-02
     35  0.109167D-01 -0.620831D-02  0.209173D-01  0.449818D-01  0.151410D-01
     36 -0.250471D-01 -0.400593D-02 -0.559245D-02 -0.799352D-02 -0.271011D-01
     37  0.430797D-01  0.819560D-02 -0.570181D-03  0.137274D-02  0.255716D-02
     38  0.168271D+00  0.310047D-01  0.528300D-02  0.276280D-02  0.123564D-01
     39  0.444567D-01 -0.413238D-01  0.310486D-02  0.266233D-02  0.539275D-02
     40  0.430197D-01 -0.132999D-01  0.120928D-01  0.106607D-01  0.165873D-01
     41 -0.132054D-01  0.256598D-02  0.807419D-02  0.124442D-02  0.422005D-02
     42 -0.543815D-02 -0.202283D-01  0.477865D-03  0.121398D-02 -0.589526D-02
     43 -0.463032D-02  0.124862D-01  0.164926D-01 -0.107353D-01  0.269172D-02
     44  0.450606D-01 -0.496750D-02 -0.750328D-02 -0.456162D-01  0.301186D-01
     45  0.431780D-01  0.531483D-01  0.390557D-02  0.398011D-01 -0.481842D-02
               16            17            18            19            20
     16  0.497081D+01
     17 -0.219673D+00  0.729861D+01
     18  0.230819D+01 -0.101603D+01  0.424012D+01
     19 -0.511449D+01 -0.159948D+00 -0.479508D+00  0.507671D+01
     20 -0.122606D+00 -0.491079D+01  0.101322D+01  0.182098D+00  0.494337D+01
     21 -0.368541D+00  0.100097D+01 -0.113963D+01  0.670445D+00 -0.108762D+01
     22 -0.689775D-01 -0.310348D+00 -0.168170D+00  0.668078D-03 -0.191613D-01
     23 -0.303943D+00  0.812658D-01  0.175494D+00 -0.196935D-01 -0.947749D-03
     24 -0.155886D+00  0.179519D+00 -0.170287D+00 -0.251071D-01  0.218181D-01
     25 -0.215696D-01 -0.156314D-01 -0.168034D-01 -0.263755D-02  0.168281D-02
     26 -0.294035D-01 -0.117670D-01  0.285914D-01 -0.296106D-03 -0.948214D-03
     27 -0.630459D-01  0.665312D-01  0.274521D-01 -0.253970D-02  0.568719D-02
     28  0.709696D-01 -0.636211D-01 -0.496769D-01  0.638653D-03 -0.227270D-02
     29 -0.579564D-01  0.408370D-02  0.274285D-01  0.463724D-03 -0.110559D-02
     30 -0.547289D-01  0.331606D-01 -0.540220D-02  0.305156D-03  0.662419D-03
     31 -0.174668D+00 -0.252529D+00 -0.196917D-01 -0.113323D-01 -0.256579D-01
     32 -0.161086D+00  0.307517D+00  0.644138D-01 -0.199546D-01  0.363837D-01
     33 -0.431454D-01  0.126815D+00 -0.268293D+00 -0.109638D-01  0.300843D-01
     34  0.353205D-02 -0.460093D-01  0.175427D-01  0.109588D-02 -0.638171D-02
     35 -0.324861D-01  0.318179D-01 -0.183300D-01 -0.387575D-02  0.516458D-02
     36  0.206840D-01 -0.348526D-01 -0.106292D-01  0.155623D-02 -0.330636D-02
     37 -0.141264D-01 -0.944593D-02 -0.416483D-02 -0.101988D-02 -0.123464D-02
     38 -0.181943D-01  0.506187D-01  0.137649D-01 -0.239544D-02  0.629651D-02
     39 -0.717747D-02  0.261042D-01 -0.132752D-01 -0.134042D-02  0.436452D-02
     40 -0.144722D+00  0.234802D-01 -0.121007D-01 -0.327520D-02  0.661437D-02
     41 -0.811174D-01  0.175498D+00 -0.331328D-03  0.108701D-02 -0.311108D-02
     42 -0.862104D-03 -0.220481D-01 -0.147521D+00 -0.133879D-03 -0.235929D-02
     43  0.775759D-01  0.105615D+00 -0.193419D-01 -0.298715D-02 -0.312674D-02
     44  0.118680D+00  0.312028D-01 -0.202792D-01  0.109136D-02 -0.219403D-02
     45 -0.994642D-02 -0.104407D-01 -0.462666D-01  0.495093D-02  0.126055D-02
               21            22            23            24            25
     21  0.986537D+00
     22 -0.388506D-01  0.148781D+02
     23  0.359676D-01 -0.101318D+01  0.105925D+02
     24  0.214619D-01  0.485667D+00 -0.341946D+00  0.141066D+02
     25  0.457161D-02 -0.323482D+01 -0.259302D+00  0.113762D+01  0.325774D+01
     26  0.996585D-03 -0.183569D+00 -0.395207D+01 -0.280773D+00  0.232927D+00
     27  0.125548D-01  0.124264D+01 -0.430099D+00 -0.209266D+01 -0.126527D+01
     28 -0.769636D-02 -0.164747D+01 -0.508274D+00 -0.736807D+00 -0.556717D-01
     29  0.329845D-02 -0.581891D+00 -0.358103D+01  0.208419D+00  0.414226D-01
     30  0.331807D-02 -0.775048D+00  0.188764D+00 -0.341648D+01 -0.628805D-01
     31 -0.266590D-01 -0.433134D+01  0.148527D+01 -0.103823D+01  0.675209D-01
     32  0.456396D-01  0.156015D+01 -0.229892D+01 -0.202703D+01 -0.357622D-01
     33  0.127765D-01 -0.105751D+01 -0.196382D+01 -0.380241D+01  0.704211D-01
     34 -0.724835D-02  0.675156D-01 -0.325448D-01  0.573288D-01 -0.162857D-01
     35  0.661669D-02 -0.884491D-02  0.495091D-01  0.291451D-01 -0.196525D-01
     36 -0.787567D-02  0.345833D-01 -0.316491D-01  0.543592D-01  0.331846D-01
     37 -0.833495D-03  0.692257D-02 -0.129484D-01 -0.448423D-02  0.737890D-02
     38  0.105608D-01 -0.792558D-02  0.574982D-01  0.185477D-01 -0.905874D-02
     39  0.489177D-02  0.705282D-02  0.591004D-01  0.426588D-01 -0.174337D-02
     40  0.983169D-02  0.100172D+00 -0.481823D-02  0.124967D-01 -0.172452D-02
     41  0.295314D-02 -0.838581D-01  0.347155D-01  0.611401D-01 -0.965989D-02
     42 -0.265361D-02  0.183918D-01  0.138925D-01  0.292120D-01  0.210277D-01
     43 -0.645557D-02 -0.141848D-01  0.662951D-01  0.532176D-02  0.264801D-02
     44 -0.917767D-02  0.574389D-01  0.138003D+00  0.274712D-01  0.930400D-02
     45 -0.406309D-02  0.121803D-01  0.389002D-01 -0.353914D-01  0.509409D-02
               26            27            28            29            30
     26  0.382388D+01
     27  0.210880D+00  0.166186D+01
     28  0.320044D-01 -0.408149D-01  0.141442D+01
     29  0.660233D-01  0.146117D-01  0.663035D+00  0.341323D+01
     30  0.173099D-01  0.713180D-01  0.914287D+00 -0.325991D+00  0.332087D+01
     31 -0.856078D-02  0.397750D-01  0.811759D-01 -0.602331D-01  0.815339D-02
     32  0.739371D-02  0.267664D-01 -0.420437D-01  0.127290D-01  0.357831D-01
     33  0.278082D-01  0.764292D-01 -0.126771D-01  0.360060D-01  0.197368D-01
     34 -0.172893D-01  0.330437D-01 -0.256504D-03 -0.704964D-02  0.196775D-01
     35  0.361892D-02 -0.646845D-01 -0.864441D-02  0.166722D-02  0.194421D-01
     36 -0.530608D-01  0.870053D-01  0.828326D-02  0.186657D-01 -0.182710D-01
     37 -0.508390D-03  0.400928D-03 -0.211957D-02 -0.125424D-01  0.283373D-02
     38 -0.167193D-01  0.461377D-02 -0.911925D-03 -0.766444D-02  0.159561D-02
     39  0.163724D-01 -0.371611D-02  0.982370D-02  0.445434D-02  0.270261D-02
     40 -0.643302D-02  0.759801D-02  0.987130D-01  0.136740D-01 -0.681144D-01
     41  0.181613D-02  0.245878D-01  0.228991D-01 -0.291460D-01 -0.126354D-01
     42  0.152506D-01 -0.200725D-01 -0.661018D-01 -0.606642D-02  0.810772D-02
     43  0.327218D-02  0.718530D-02 -0.476001D-02  0.145700D-02  0.143027D-02
     44  0.455364D-02  0.122361D-01 -0.831467D-02  0.458270D-02  0.369998D-02
     45  0.314205D-02  0.417861D-02 -0.366866D-02  0.372072D-02  0.839315D-03
               31            32            33            34            35
     31  0.123103D+02
     32 -0.680548D+00  0.101159D+02
     33  0.638559D+00  0.107669D+01  0.122766D+02
     34 -0.287729D+01 -0.231496D+00  0.104537D+01  0.287201D+01
     35 -0.326714D+00 -0.346234D+01 -0.506765D+00  0.368912D+00  0.316895D+01
     36  0.106674D+01 -0.362441D+00 -0.188421D+01 -0.108456D+01  0.580818D+00
     37 -0.338425D+01  0.157501D+00  0.103515D+00  0.460309D-01 -0.335372D-01
     38  0.161976D+00 -0.173100D+01  0.105128D+01 -0.190586D-01  0.573105D-01
     39  0.962485D-01  0.975704D+00 -0.279176D+01 -0.322134D-01 -0.559434D-01
     40 -0.147285D+01 -0.702665D+00 -0.728451D+00 -0.484937D-01  0.468141D-01
     41 -0.449279D+00 -0.357282D+01  0.149483D+00  0.207180D-01  0.555762D-01
     42 -0.741776D+00  0.237152D+00 -0.342245D+01 -0.636152D-01  0.213201D-01
     43 -0.521687D-02  0.126065D-01  0.208779D-02 -0.269457D-02  0.264282D-02
     44  0.709809D-02  0.162838D-01  0.104045D-02 -0.285201D-02  0.540672D-02
     45  0.154445D-02  0.490218D-02 -0.589756D-02 -0.107819D-02  0.694285D-03
               36            37            38            39            40
     36  0.177510D+01
     37 -0.489212D-01  0.335571D+01
     38 -0.420134D-01 -0.189768D+00  0.136809D+01
     39 -0.308542D-01 -0.100410D+00 -0.106528D+01  0.281525D+01
     40 -0.287951D-01  0.292831D-01  0.265139D-01  0.147202D-01  0.142096D+01
     41  0.167569D-02  0.537317D-01  0.105170D-01 -0.257733D-01  0.492697D+00
     42  0.637664D-01  0.420459D-01 -0.340144D-01  0.191893D-01  0.804035D+00
     43 -0.321530D-02 -0.279991D-04  0.450763D-02  0.165685D-02  0.389524D-02
     44 -0.666852D-02  0.132370D-02  0.759870D-02  0.359835D-02  0.772204D-02
     45 -0.272071D-02  0.462853D-03  0.309974D-02  0.630899D-03  0.263051D-02
               41            42            43            44            45
     41  0.331012D+01
     42 -0.194207D+00  0.350971D+01
     43  0.890380D-03 -0.125446D-02  0.266242D+01
     44  0.405086D-03 -0.228300D-02 -0.110567D+01  0.182612D+01
     45  0.228304D-03 -0.160568D-02 -0.503332D+00 -0.791494D+00  0.319384D+01
 ReadGW:  IGet=0 IStart=         108 Next=        6776 LGW=        6668.
 ICntrl=12127.
 Symmetry not used in FoFDir.
 MinBra= 0 MaxBra= 2 Meth= 1.
 IRaf=       0 NMat=   1 IRICut=       1 DoRegI=T DoRafI=F ISym2E= 0 JSym2E=0.
 PrsmSu:  NPrtUS=   8 ThrOK=T
 PRISM was handed    16311353 working-precision words and  2105 shell-pairs
 PRISM was handed    16311353 working-precision words and  2105 shell-pairs
 PRISM was handed    16311353 working-precision words and  2105 shell-pairs
 PRISM was handed    16311353 working-precision words and  2105 shell-pairs
 PRISM was handed    16311353 working-precision words and  2105 shell-pairs
 PRISM was handed    16311353 working-precision words and  2105 shell-pairs
 PRISM was handed    16311353 working-precision words and  2105 shell-pairs
 PRISM was handed    16311353 working-precision words and  2105 shell-pairs
 Pruned (  75, 302) grid will be used in CalDFT.
 CkSvGd:  ISavGI=        -1 IRadAn=       4 IRASav=       4 ISavGd=        -1.
 CalDSu:  NPrtUS=   8 ThrOK=T
 IPart= 0 IRanGd=          0 ScrnBf=T ScrnGd=T RCrit=4.00D+00 DoMicB=T.
 IPart= 7 IRanGd=          0 ScrnBf=T ScrnGd=T RCrit=4.00D+00 DoMicB=T.
 IPart= 6 IRanGd=          0 ScrnBf=T ScrnGd=T RCrit=4.00D+00 DoMicB=T.
 IPart= 1 IRanGd=          0 ScrnBf=T ScrnGd=T RCrit=4.00D+00 DoMicB=T.
 IPart= 2 IRanGd=          0 ScrnBf=T ScrnGd=T RCrit=4.00D+00 DoMicB=T.
 IPart= 5 IRanGd=          0 ScrnBf=T ScrnGd=T RCrit=4.00D+00 DoMicB=T.
 IPart= 4 IRanGd=          0 ScrnBf=T ScrnGd=T RCrit=4.00D+00 DoMicB=T.
 CutRad = 1000.00    CtRdIn =    0.00    XCrit =  15.00   ICut = 0
 CutRad = 1000.00    CtRdIn =    0.00    XCrit =  15.00   ICut = 0
 IPart= 3 IRanGd=          0 ScrnBf=T ScrnGd=T RCrit=4.00D+00 DoMicB=T.
 CutRad = 1000.00    CtRdIn =    0.00    XCrit =  15.00   ICut = 0
 CutRad = 1000.00    CtRdIn =    0.00    XCrit =  15.00   ICut = 0
 CutRad = 1000.00    CtRdIn =    0.00    XCrit =  15.00   ICut = 0
 CutRad = 1000.00    CtRdIn =    0.00    XCrit =  15.00   ICut = 0
 CutRad = 1000.00    CtRdIn =    0.00    XCrit =  15.00   ICut = 0
 CutRad = 1000.00    CtRdIn =    0.00    XCrit =  15.00   ICut = 0
 IPart= 7        13131 of        14538 points in      28 batches and       82 microbatches, Max-NSigAt=      15 Max-NSgAt2=      15
 IPart= 3        13850 of        15632 points in      32 batches and      102 microbatches, Max-NSigAt=      15 Max-NSgAt2=      15
 IPart= 2        13251 of        15478 points in      31 batches and       85 microbatches, Max-NSigAt=      15 Max-NSgAt2=      15
 IPart= 6        13141 of        15180 points in      33 batches and      100 microbatches, Max-NSigAt=      15 Max-NSgAt2=      15
 IPart= 4        12413 of        14106 points in      29 batches and       94 microbatches, Max-NSigAt=      15 Max-NSgAt2=      15
 IPart= 5        13716 of        16012 points in      33 batches and       83 microbatches, Max-NSigAt=      15 Max-NSgAt2=      15
 IPart= 1        12005 of        13658 points in      28 batches and       93 microbatches, Max-NSigAt=      15 Max-NSgAt2=      15
 IPart= 0        13629 of        14970 points in      29 batches and       92 microbatches, Max-NSigAt=      15 Max-NSgAt2=      15
 Polarizability after L703:
                1             2             3
      1  0.545824D+02
      2  0.181422D+01  0.642283D+02
      3 -0.764715D+01 -0.263859D+01  0.540184D+02
 Dipole Derivatives after L703:
               1            2            3            4            5
      1-0.498218D+00 0.481343D-01 0.188538D+00 0.100107D+00-0.390532D-01
      2 0.355064D+00-0.593048D+00 0.125232D+00-0.103497D+00 0.748616D-01
      3 0.763441D-01 0.211658D+00-0.996655D-01 0.338305D-01-0.544026D-01
               6            7            8            9           10
      1 0.281616D-02 0.667533D+00 0.192164D+00-0.307814D+00 0.594133D+00
      2 0.150480D-01-0.563854D-02 0.838063D-01-0.184998D-01 0.142092D+00
      3-0.104644D+00-0.245848D+00-0.985384D-01 0.261897D+00-0.283277D+00
              11           12           13           14           15
      1-0.253818D-01-0.276657D+00-0.219152D-01 0.367456D-01-0.408359D-01
      2 0.750064D+00-0.728813D-01 0.359369D-02 0.159128D-01 0.963759D-02
      3-0.509015D-01 0.455155D+00-0.136416D-01 0.116281D-01-0.994250D-01
              16           17           18           19           20
      1-0.118538D+01-0.212678D+00 0.436931D+00 0.227291D+00 0.295230D-03
      2-0.132002D+00-0.536191D+00 0.102370D+00-0.587442D-01 0.248692D+00
      3 0.450644D+00 0.135696D+00-0.508704D+00-0.446916D-02-0.560857D-01
              21           22           23           24           25
      1 0.199095D-01 0.693530D-01 0.365779D-01 0.657238D-02 0.318396D-01
      2-0.191170D-01 0.604950D-01-0.349117D-01-0.114394D+00-0.266217D-01
      3 0.685503D-01 0.329873D-01-0.797641D-01 0.216990D-01-0.827329D-01
              26           27           28           29           30
      1 0.148722D-01-0.577617D-01-0.934009D-01 0.455098D-01 0.692278D-01
      2-0.546254D-02 0.492917D-01-0.148058D-01-0.290428D-01-0.156505D-01
      3 0.668422D-01-0.655888D-01 0.664314D-01-0.220349D-01 0.443296D-01
              31           32           33           34           35
      1 0.489388D-01-0.333659D-01 0.620901D-01-0.198791D-01-0.135181D-01
      2-0.456763D-01 0.536841D-01-0.170738D-01 0.226249D-01 0.413591D-01
      3 0.505626D-01 0.326599D-01 0.103589D+00-0.115388D+00 0.200134D-01
              36           37           38           39           40
      1-0.872602D-01 0.824992D-01-0.275861D-01-0.760250D-02-0.580117D-01
      2 0.706172D-01-0.183864D-01-0.152403D+00-0.107984D+00-0.280538D-02
      3-0.101892D+00 0.241331D-02-0.698287D-01-0.903159D-02 0.481508D-01
              41           42           43           44           45
      1 0.675156D-01 0.440094D-01 0.551135D-01-0.902306D-01-0.521632D-01
      2 0.845847D-01 0.272888D-01-0.175692D+00-0.190456D-02-0.338850D-01
      3-0.160215D-01 0.345214D-01-0.160073D-01-0.309198D-01-0.791622D-03
 Hessian after L703:
                1             2             3             4             5
      1  0.209085D+00
      2  0.213813D+00  0.527793D+00
      3  0.462365D-01 -0.290673D-01  0.622289D+00
      4 -0.228708D-01 -0.156797D-01  0.644167D-02  0.271999D-01
      5 -0.124524D-01 -0.470203D-01 -0.883287D-02  0.834222D-02  0.488235D-01
      6 -0.537075D-02  0.378254D-03 -0.328305D+00  0.255964D-02 -0.127442D-02
      7  0.125276D-01 -0.377162D-01  0.193821D-02  0.955274D-03 -0.412883D-03
      8  0.656669D-01 -0.587587D-01 -0.138004D-01 -0.281335D-02 -0.735171D-03
      9 -0.566268D-01  0.293294D-01 -0.280201D-01  0.176191D-01 -0.511837D-02
     10 -0.907012D-01  0.170518D-01 -0.129166D-01  0.397696D-02 -0.574230D-04
     11 -0.787471D-01 -0.248469D+00  0.105440D+00  0.774795D-02 -0.621542D-05
     12  0.301325D-01  0.671163D-01 -0.154446D+00 -0.902154D-02  0.325648D-01
     13  0.991628D-02 -0.466908D-02  0.192869D-02  0.404638D-02 -0.116140D-02
     14  0.502182D-02  0.186531D-02  0.259979D-01  0.164802D-02 -0.430513D-02
     15 -0.473364D-02  0.170074D-03 -0.951024D-02 -0.235623D-02  0.250350D-02
     16 -0.159211D-01 -0.272306D-01  0.324696D-01 -0.888060D-02  0.108113D-02
     17 -0.644799D-01  0.331991D-01  0.205557D-01 -0.898752D-03  0.379973D-03
     18  0.541891D-01  0.835561D-02 -0.853964D-02  0.135762D-03  0.625292D-03
     19 -0.369716D-02 -0.893397D-02  0.871577D-03 -0.505213D-03 -0.600142D-04
     20 -0.929690D-02  0.277824D-02  0.244885D-03  0.890345D-03 -0.354782D-03
     21  0.365696D-02  0.250934D-03  0.134400D-02 -0.454654D-03 -0.144025D-04
     22  0.496612D-02 -0.227649D-02 -0.216733D-02 -0.222758D-02  0.185444D-02
     23 -0.161014D-02 -0.251327D-01 -0.121701D-01 -0.952125D-03  0.179311D-02
     24  0.321980D-02  0.928307D-02  0.117920D-01  0.195360D-02  0.482065D-03
     25  0.462726D-03 -0.128601D-03  0.249898D-04 -0.174694D-03 -0.470068D-03
     26  0.136497D-02  0.416048D-03 -0.924691D-03 -0.206686D-03  0.524405D-04
     27  0.153554D-02  0.151971D-02  0.133688D-02 -0.484773D-03 -0.344289D-03
     28  0.269267D-02 -0.127155D-02  0.159454D-04 -0.469772D-03  0.143038D-03
     29 -0.968377D-03 -0.161646D-02 -0.294630D-03  0.413234D-03 -0.271778D-03
     30 -0.146891D-02  0.418612D-03  0.418332D-03  0.635632D-04 -0.565788D-04
     31  0.194113D-02  0.508111D-03 -0.336702D-03 -0.296160D-03 -0.335285D-05
     32 -0.253678D-02 -0.911409D-03 -0.249379D-02 -0.248457D-03  0.950078D-04
     33  0.948476D-03 -0.373194D-02 -0.263659D-02 -0.478492D-03  0.164209D-03
     34 -0.180270D-03  0.106623D-03  0.300331D-03  0.776971D-04 -0.775304D-04
     35 -0.295842D-03 -0.101477D-03 -0.197404D-03  0.602806D-05  0.962095D-04
     36  0.281970D-03  0.210826D-03  0.275685D-03  0.257657D-04 -0.203876D-03
     37  0.455242D-03 -0.570383D-03 -0.608777D-03 -0.638093D-05  0.198261D-04
     38 -0.976069D-04 -0.903419D-03 -0.972407D-03 -0.206649D-03  0.111242D-03
     39 -0.113922D-03  0.849277D-03  0.856352D-03  0.133024D-03 -0.133432D-03
     40  0.876319D-03 -0.724295D-03 -0.197702D-03 -0.414972D-04  0.734933D-04
     41  0.149512D-02 -0.152668D-03 -0.466894D-03  0.173751D-04  0.716728D-04
     42 -0.500109D-03  0.283745D-03  0.749340D-04  0.599533D-05  0.000000D+00
     43 -0.109553D+00 -0.132278D+00 -0.740005D-01 -0.783495D-03  0.318089D-02
     44 -0.116876D+00 -0.182986D+00 -0.830181D-01  0.194056D-02  0.127022D-02
     45 -0.713866D-01 -0.853666D-01 -0.106930D+00 -0.161424D-01 -0.203617D-01
                6             7             8             9            10
      6  0.350141D+00
      7 -0.138422D-02 -0.106308D-01
      8  0.227503D-03 -0.754672D-01  0.346311D-01
      9 -0.352011D-02  0.697917D-01  0.526679D-01  0.251197D-02
     10 -0.586227D-04  0.361777D-01  0.702565D-01 -0.536987D-01  0.165927D+00
     11 -0.197028D-02  0.552821D-01  0.182775D-01 -0.312164D-01  0.729192D-02
     12 -0.123242D-01 -0.446031D-01 -0.378962D-01  0.413289D-01  0.174965D+00
     13  0.589953D-03 -0.332707D-02 -0.529230D-02  0.396509D-02 -0.698236D-01
     14  0.146600D-02  0.124644D-02  0.160989D-02 -0.154805D-02  0.491019D-02
     15  0.446805D-03  0.203282D-02  0.174588D-02 -0.173422D-02 -0.961398D-01
     16  0.134103D-02 -0.192725D-01 -0.310723D-01  0.164628D-01  0.848304D-02
     17  0.987132D-03  0.447789D-01 -0.102691D-01 -0.549943D-01 -0.421902D-01
     18 -0.968882D-04 -0.271721D-01 -0.619344D-03 -0.641312D-02 -0.534588D-02
     19  0.132260D-04 -0.440442D-02 -0.492461D-03  0.350804D-02  0.141340D-01
     20 -0.994266D-04  0.133083D-01  0.142258D-01  0.645606D-02 -0.119807D-01
     21  0.698077D-04 -0.226052D-02 -0.758537D-02 -0.360117D-02  0.643500D-02
     22 -0.166250D-03 -0.442754D-03 -0.348263D-02  0.321688D-02 -0.657659D-01
     23 -0.186760D-02 -0.103932D-02 -0.208514D-02  0.112484D-02 -0.232256D-01
     24  0.115364D-02 -0.156186D-02  0.342656D-03  0.232482D-03 -0.194495D-01
     25  0.394556D-03  0.250867D-03  0.143725D-03 -0.217834D-03 -0.301042D-02
     26  0.902772D-03 -0.781642D-03 -0.578076D-03  0.506193D-03 -0.170421D-01
     27  0.470348D-03 -0.362166D-03 -0.398027D-03 -0.110519D-03 -0.106455D-01
     28 -0.135526D-03 -0.164048D-02 -0.107418D-02  0.767797D-03 -0.161271D-02
     29  0.356325D-03 -0.103931D-02  0.735449D-03 -0.147140D-03  0.269358D-01
     30 -0.317738D-04  0.102328D-02  0.116117D-02 -0.107259D-02  0.159165D-01
     31  0.185872D-03  0.610531D-03 -0.103619D-02 -0.476144D-03 -0.240030D-02
     32  0.784429D-04  0.312569D-03 -0.115253D-03 -0.249246D-03 -0.111882D-01
     33  0.329300D-03 -0.809580D-03 -0.562309D-03  0.941774D-03 -0.679261D-02
     34 -0.736686D-04 -0.502128D-04  0.115602D-03  0.803584D-04  0.625946D-03
     35 -0.207255D-03 -0.673527D-04  0.276617D-04  0.547539D-04  0.121852D-02
     36  0.712148D-04  0.576703D-04 -0.103817D-03 -0.723624D-04 -0.210033D-03
     37  0.283220D-04 -0.655969D-03 -0.229007D-03  0.523284D-03 -0.138617D-02
     38  0.636717D-04 -0.223534D-03 -0.128716D-03  0.136372D-03 -0.152473D-02
     39 -0.199197D-04  0.487811D-03  0.209728D-03 -0.365717D-03  0.151296D-02
     40 -0.450735D-04 -0.118518D-02 -0.248946D-03  0.908597D-03 -0.242265D-03
     41 -0.773594D-04 -0.164884D-02 -0.100737D-02  0.131116D-02 -0.319193D-02
     42  0.710634D-05  0.335655D-03  0.123077D-03 -0.109289D-03 -0.471679D-04
     43  0.212151D-02 -0.891262D-02 -0.149741D-01 -0.582419D-02  0.561793D-02
     44  0.103623D-02  0.346799D-02  0.417006D-02  0.168682D-02 -0.172640D-01
     45 -0.839151D-02  0.248634D-02  0.448761D-02  0.403602D-05  0.647539D-02
               11            12            13            14            15
     11  0.565808D+00
     12 -0.400292D-01  0.576733D+00
     13  0.748786D-02 -0.979497D-01  0.742116D-01
     14 -0.568727D-01  0.178847D-01 -0.587232D-02  0.566121D-01
     15  0.179437D-01 -0.292965D+00  0.998022D-01 -0.188857D-01  0.308323D+00
     16  0.822543D-02 -0.359792D-01 -0.174183D-01  0.513744D-02  0.574708D-02
     17 -0.383454D-01  0.446087D-01  0.817011D-02 -0.208942D-02 -0.357257D-02
     18  0.523579D-02 -0.300975D-01 -0.638241D-02  0.167310D-02  0.496844D-02
     19  0.268243D-02  0.569095D-02 -0.683891D-03  0.328362D-03 -0.891777D-03
     20 -0.512427D-02 -0.399222D-02 -0.365266D-03  0.447756D-03  0.709019D-03
     21  0.318281D-02 -0.235609D-02 -0.314327D-03  0.950396D-04  0.576745D-03
     22 -0.249231D-01 -0.238286D-01  0.461729D-02 -0.128752D-01 -0.675036D-02
     23 -0.176614D+00 -0.541369D-01 -0.331702D-03  0.360880D-02  0.299981D-02
     24 -0.513550D-01 -0.120936D+00 -0.151911D-02 -0.243234D-01 -0.121250D-01
     25  0.276784D-02 -0.169845D-02  0.123012D-02 -0.344898D-03  0.612989D-03
     26  0.351297D-02 -0.271160D-01  0.142910D-03 -0.466304D-02 -0.256204D-02
     27 -0.550614D-03 -0.191535D-01 -0.483849D-03 -0.281259D-02 -0.496924D-03
     28  0.284316D-02  0.104713D-02 -0.632762D-04  0.707016D-03  0.340655D-03
     29 -0.936402D-02 -0.749473D-02 -0.999034D-03  0.707272D-03 -0.139208D-03
     30 -0.621195D-02 -0.615748D-02 -0.122822D-02  0.608456D-03  0.204440D-04
     31 -0.244631D-02  0.134478D-02 -0.239695D-03 -0.550200D-04  0.662748D-03
     32 -0.323832D-01  0.143880D-01  0.104121D-02  0.197305D-02  0.699958D-03
     33 -0.105422D-01  0.130444D-01 -0.800693D-04 -0.960466D-03  0.781352D-03
     34  0.186467D-03 -0.759217D-04  0.105323D-03  0.405859D-03 -0.217636D-03
     35  0.161475D-02  0.168301D-02 -0.367346D-03 -0.302634D-03 -0.852537D-03
     36 -0.138842D-02  0.406147D-03  0.668559D-04  0.776912D-03  0.699775D-03
     37 -0.203046D-02  0.267362D-02  0.754702D-04  0.270753D-03  0.157735D-03
     38 -0.220403D-02  0.427087D-02  0.425814D-04  0.187425D-03  0.333182D-05
     39  0.244846D-02 -0.252529D-02  0.237905D-03  0.253963D-03  0.225375D-03
     40  0.114696D-02  0.293694D-03 -0.178852D-03 -0.115418D-03 -0.504391D-04
     41  0.243478D-02  0.187756D-02  0.274078D-04 -0.659803D-04 -0.156478D-03
     42 -0.115002D-02  0.730444D-05 -0.242075D-04  0.779753D-04  0.709292D-04
     43  0.124848D-01 -0.299067D-02 -0.246788D-02 -0.413060D-03  0.178361D-02
     44 -0.222661D-01 -0.137286D-01  0.214637D-02  0.128735D-02 -0.606694D-03
     45  0.101632D-01  0.944041D-02  0.139123D-02 -0.303795D-03  0.717919D-03
               16            17            18            19            20
     16  0.841138D-01
     17  0.133532D-01  0.746750D-01
     18 -0.783484D-01  0.977942D-01  0.522440D+00
     19 -0.183655D-01  0.229324D-01  0.459572D-01  0.183664D-01
     20  0.220259D-01 -0.512100D-01 -0.104087D+00 -0.181894D-01  0.406932D-01
     21  0.504405D-01 -0.988999D-01 -0.475812D+00 -0.566237D-01  0.102235D+00
     22 -0.121543D-01  0.101950D-01  0.134793D-01 -0.327836D-02  0.332236D-02
     23  0.565615D-02 -0.324522D-02 -0.530432D-02  0.108298D-02 -0.583069D-03
     24  0.523275D-02 -0.127307D-02 -0.459223D-02  0.516567D-03 -0.119914D-02
     25  0.816938D-03 -0.793027D-03  0.346185D-03 -0.206437D-03  0.137957D-03
     26 -0.450272D-03  0.905633D-03  0.574840D-03 -0.249647D-03  0.140285D-03
     27 -0.331704D-04  0.268114D-03  0.105125D-02 -0.144651D-03  0.550237D-03
     28  0.248802D-02  0.582106D-03 -0.608512D-03  0.151581D-04  0.224413D-03
     29  0.115932D-02 -0.380009D-03 -0.300083D-02  0.421236D-03 -0.109250D-02
     30  0.769037D-03 -0.222672D-02 -0.810598D-03  0.390633D-03 -0.217418D-03
     31 -0.132090D-02 -0.452119D-03  0.156786D-02  0.189602D-03  0.689917D-03
     32 -0.128183D-02 -0.233786D-02  0.129520D-02 -0.206571D-03  0.279842D-03
     33  0.495844D-03 -0.163121D-03 -0.573887D-03  0.113359D-03 -0.179068D-03
     34  0.211889D-03  0.353329D-03  0.144764D-03 -0.420844D-04  0.215806D-03
     35 -0.567292D-04  0.110378D-04 -0.463319D-03  0.141601D-03 -0.218422D-03
     36 -0.270291D-04  0.541319D-04  0.231279D-03 -0.367198D-04  0.827671D-04
     37  0.814384D-03  0.167793D-02 -0.698750D-03  0.109955D-04 -0.207723D-03
     38  0.108798D-03 -0.433915D-03 -0.190895D-04 -0.819659D-04  0.388611D-04
     39 -0.236128D-03 -0.829251D-03  0.556966D-03 -0.958283D-04  0.248664D-03
     40  0.688368D-03  0.266884D-02 -0.140594D-02  0.107107D-03 -0.331370D-03
     41  0.213498D-02  0.944976D-03 -0.142077D-02  0.287132D-03 -0.840700D-04
     42 -0.487473D-03 -0.669365D-03 -0.585987D-03 -0.200824D-03 -0.642524D-03
     43 -0.428322D-02  0.410215D-02  0.414177D-02 -0.164017D-02 -0.443677D-03
     44  0.120939D-02 -0.180474D-02 -0.638956D-03  0.337866D-03  0.631751D-04
     45  0.215271D-02 -0.163973D-02 -0.172679D-02  0.931878D-03 -0.109196D-03
               21            22            23            24            25
     21  0.478289D+00
     22 -0.198146D-02  0.543638D+00
     23  0.389450D-03 -0.105852D-01  0.475578D+00
     24  0.822878D-03  0.351143D-01 -0.987268D-02  0.537962D+00
     25  0.855266D-04 -0.124556D+00  0.207155D-01 -0.118452D+00  0.133235D+00
     26  0.174621D-03  0.229429D-01 -0.550162D-01  0.363853D-01 -0.223943D-01
     27  0.230309D-03 -0.116073D+00  0.349138D-01 -0.218438D+00  0.127991D+00
     28  0.419648D-04 -0.247226D+00  0.567038D-01  0.654105D-01 -0.168494D-01
     29  0.669594D-03  0.609142D-01 -0.612543D-01 -0.221728D-01  0.382140D-02
     30  0.407117D-03  0.688690D-01 -0.210375D-01 -0.679653D-01 -0.236155D-01
     31  0.148777D-04 -0.944677D-01 -0.352022D-01  0.221531D-01  0.800990D-02
     32 -0.358380D-04 -0.331035D-01 -0.134917D+00  0.452516D-01 -0.219699D-02
     33  0.968711D-04  0.230884D-01  0.468332D-01 -0.116242D+00  0.122940D-01
     34  0.229736D-05  0.809488D-02 -0.280694D-02  0.134037D-01 -0.271371D-03
     35 -0.386055D-04  0.147683D-01 -0.585733D-02  0.208010D-01 -0.245678D-02
     36  0.110474D-04 -0.100597D-01  0.346057D-02 -0.158668D-01  0.233527D-02
     37 -0.238100D-04 -0.230107D-02 -0.115301D-01 -0.847839D-02  0.478734D-03
     38  0.401635D-04 -0.497217D-03 -0.188165D-01 -0.140983D-01  0.713621D-03
     39  0.195058D-04  0.126944D-02  0.173948D-01  0.110144D-01 -0.533055D-03
     40  0.829013D-04 -0.133565D-01  0.158040D-02  0.474429D-02  0.668101D-03
     41 -0.113411D-03 -0.239555D-01  0.432633D-02  0.695004D-02  0.450908D-03
     42 -0.972901D-04  0.183525D-01 -0.344133D-02 -0.643629D-02  0.638031D-04
     43  0.898432D-03  0.445989D-02  0.154444D-02 -0.228730D-02 -0.838757D-04
     44 -0.349913D-03 -0.229847D-02 -0.178619D-02  0.479866D-02  0.337596D-04
     45 -0.142755D-05 -0.236327D-02  0.713855D-03 -0.375092D-03  0.369258D-03
               26            27            28            29            30
     26  0.638114D-01
     27 -0.378806D-01  0.239895D+00
     28  0.527122D-02  0.515642D-02  0.273355D+00
     29 -0.184887D-02 -0.117863D-02 -0.639079D-01  0.708014D-01
     30  0.755388D-02  0.870690D-02 -0.776701D-01  0.218626D-01  0.728697D-01
     31  0.136319D-01 -0.857669D-02 -0.120295D-01 -0.247735D-01  0.164619D-01
     32 -0.503067D-02  0.361729D-02  0.250423D-02  0.559989D-02 -0.339342D-02
     33  0.207882D-01 -0.140020D-01  0.412642D-02  0.899065D-02 -0.631952D-02
     34 -0.275737D-02  0.175642D-02  0.958278D-03  0.811803D-03 -0.150128D-03
     35 -0.335066D-02  0.252756D-02 -0.111458D-03  0.901698D-03 -0.673413D-03
     36  0.275085D-02 -0.685796D-03  0.246672D-03 -0.452102D-03  0.141553D-03
     37  0.586307D-03  0.642203D-04  0.201424D-03  0.349581D-03 -0.636508D-03
     38  0.398500D-03  0.488272D-04 -0.287588D-03  0.878686D-03 -0.196195D-03
     39 -0.561694D-03  0.847147D-03 -0.401296D-03 -0.800334D-03  0.717330D-03
     40 -0.791889D-04 -0.131315D-04  0.423757D-03 -0.205012D-02  0.145754D-02
     41  0.869272D-03 -0.310696D-03 -0.255661D-02 -0.396326D-02  0.245026D-02
     42 -0.711083D-03  0.941740D-04  0.148773D-02  0.317110D-02 -0.114281D-02
     43  0.210683D-04  0.313510D-03 -0.243458D-03 -0.108833D-02 -0.182027D-03
     44  0.380959D-03  0.299220D-04  0.230251D-03  0.166764D-03 -0.418206D-04
     45  0.119498D-03  0.254596D-03  0.174156D-03  0.630179D-03  0.218788D-03
               31            32            33            34            35
     31  0.549616D+00
     32 -0.344286D-01  0.517998D+00
     33  0.203042D-01  0.449470D-01  0.534463D+00
     34 -0.128410D+00  0.267396D-01 -0.116899D+00  0.135659D+00
     35  0.260397D-01 -0.554687D-01  0.365505D-01 -0.270545D-01  0.586509D-01
     36 -0.115201D+00  0.375066D-01 -0.213445D+00  0.127346D+00 -0.444859D-01
     37 -0.480573D-01 -0.104124D-01 -0.642144D-02 -0.151439D-02 -0.160993D-01
     38 -0.111527D-01 -0.229101D+00 -0.118764D+00 -0.767996D-04  0.618700D-02
     39 -0.737686D-02 -0.120958D+00 -0.126005D+00 -0.218792D-03 -0.219168D-01
     40 -0.273196D+00  0.641656D-01  0.697473D-01 -0.152260D-01  0.434570D-02
     41  0.683585D-01 -0.645012D-01 -0.223541D-01  0.379215D-02 -0.212511D-02
     42  0.690249D-01 -0.208478D-01 -0.707246D-01 -0.253454D-01  0.731090D-02
     43  0.508048D-04  0.840049D-03  0.363158D-03 -0.385444D-04 -0.104914D-04
     44  0.322011D-03 -0.117970D-02 -0.101618D-02  0.458700D-04 -0.649155D-04
     45  0.246715D-03  0.193798D-03  0.291881D-03 -0.531239D-04 -0.925810D-04
               36            37            38            39            40
     36  0.233506D+00
     37 -0.976237D-02  0.472161D-01
     38  0.337192D-02  0.137794D-01  0.250547D+00
     39 -0.142917D-01  0.686190D-02  0.129723D+00  0.134628D+00
     40  0.497282D-02  0.461059D-02 -0.712876D-03 -0.139677D-02  0.296188D+00
     41 -0.170041D-02  0.245552D-01 -0.634084D-02 -0.623276D-02 -0.697762D-01
     42  0.897325D-02  0.163062D-01 -0.368848D-02 -0.559386D-02 -0.791005D-01
     43 -0.363900D-04  0.583490D-04  0.217315D-03 -0.130390D-03 -0.136143D-03
     44  0.119926D-03 -0.159579D-03 -0.420469D-03  0.303749D-03  0.573784D-04
     45  0.457404D-04  0.147468D-04  0.803668D-04 -0.629484D-04  0.240835D-05
               41            42            43            44            45
     41  0.695210D-01
     42  0.202595D-01  0.755026D-01
     43  0.102704D-04  0.128837D-03  0.117955D+00
     44  0.725458D-04 -0.758400D-04  0.126807D+00  0.203097D+00
     45 -0.156396D-04 -0.401917D-04  0.757006D-01  0.915007D-01  0.106554D+00
 FrcOut:
 IF    =   906 IFX   =   951 IFXYZ =   996
 IFFX  =  1041 IFFFX =  2076 IFLen =    45
 IFFLen=  1035 IFFFLn=     0 IEDerv=  2076
 LEDerv=  2213 IFroze=  4293 ICStrt= 49752
 DipoleDeriv   =-4.98217994D-01 3.55063509D-01 7.63441240D-02
                 4.81343157D-02-5.93047681D-01 2.11657557D-01
                 1.88537869D-01 1.25231848D-01-9.96654509D-02
                 1.00107070D-01-1.03496525D-01 3.38304860D-02
                -3.90532376D-02 7.48615715D-02-5.44025763D-02
                 2.81615537D-03 1.50479649D-02-1.04643767D-01
                 6.67532736D-01-5.63854080D-03-2.45847519D-01
                 1.92163724D-01 8.38062811D-02-9.85384054D-02
                -3.07813981D-01-1.84998023D-02 2.61897424D-01
                 5.94132566D-01 1.42091516D-01-2.83277146D-01
                -2.53818146D-02 7.50063662D-01-5.09015245D-02
                -2.76656971D-01-7.28812528D-02 4.55154999D-01
                -2.19152152D-02 3.59368867D-03-1.36416248D-02
                 3.67455888D-02 1.59128468D-02 1.16281061D-02
                -4.08358687D-02 9.63758902D-03-9.94249576D-02
                -1.18538245D+00-1.32001796D-01 4.50643906D-01
                -2.12678480D-01-5.36191410D-01 1.35696033D-01
                 4.36931258D-01 1.02369807D-01-5.08704092D-01
                 2.27290907D-01-5.87441707D-02-4.46915682D-03
                 2.95229720D-04 2.48691546D-01-5.60857059D-02
                 1.99094835D-02-1.91169662D-02 6.85503057D-02
                 6.93529737D-02 6.04949818D-02 3.29872656D-02
                 3.65778642D-02-3.49117216D-02-7.97640882D-02
                 6.57238161D-03-1.14393730D-01 2.16990464D-02
                 3.18395908D-02-2.66217179D-02-8.27328812D-02
                 1.48721646D-02-5.46253763D-03 6.68422013D-02
                -5.77616828D-02 4.92917341D-02-6.55888250D-02
                -9.34009290D-02-1.48057833D-02 6.64313736D-02
                 4.55097848D-02-2.90427996D-02-2.20349240D-02
                 6.92277907D-02-1.56505221D-02 4.43296354D-02
                 4.89387625D-02-4.56762948D-02 5.05625986D-02
                -3.33659248D-02 5.36840561D-02 3.26599344D-02
                 6.20901080D-02-1.70738278D-02 1.03589361D-01
                -1.98790501D-02 2.26249227D-02-1.15388267D-01
                -1.35181401D-02 4.13591064D-02 2.00133524D-02
                -8.72602429D-02 7.06172254D-02-1.01891848D-01
                 8.24992109D-02-1.83864382D-02 2.41331385D-03
                -2.75860968D-02-1.52403062D-01-6.98287139D-02
                -7.60249975D-03-1.07983863D-01-9.03158588D-03
                -5.80116801D-02-2.80538362D-03 4.81508202D-02
                 6.75155852D-02 8.45847036D-02-1.60214819D-02
                 4.40094334D-02 2.72887884D-02 3.45213766D-02
                 5.51135045D-02-1.75691966D-01-1.60072935D-02
                -9.02305633D-02-1.90456086D-03-3.09197645D-02
                -5.21632336D-02-3.38849937D-02-7.91621617D-04
 Full mass-weighted force constant matrix:
 Low frequencies ----1960.0921  -17.4474   -0.0003    0.0008    0.0008   10.0883
 Low frequencies ---   18.9885  121.8187  218.1177
 ******    1 imaginary frequencies (negative Signs) ****** 
 Dipole derivatives wrt mode   1:  2.03800D+01 -1.29419D+00 -9.05929D+00
 Vibrational polarizability contributions from mode   1       2.9093098       0.0117321       0.5748690
 Vibrational hyperpolarizability contributions from mode   1       0.0000000       0.0000000       0.0000000
 Dipole derivatives wrt mode   2:  5.73450D-01  7.65864D-01 -9.44056D-02
 Vibrational polarizability contributions from mode   2       0.5966462       1.0642129       0.0161704
 Vibrational hyperpolarizability contributions from mode   2       0.0000000       0.0000000       0.0000000
 Dipole derivatives wrt mode   3:  9.59015D-01 -7.99972D-01 -1.49792D-01
 Vibrational polarizability contributions from mode   3       0.5202443       0.3619983       0.0126922
 Vibrational hyperpolarizability contributions from mode   3       0.0000000       0.0000000       0.0000000
 Dipole derivatives wrt mode   4:  8.30718D-01  1.90927D+00 -3.95728D-01
 Vibrational polarizability contributions from mode   4       0.3512389       1.8553777       0.0797057
 Vibrational hyperpolarizability contributions from mode   4       0.0000000       0.0000000       0.0000000
 Dipole derivatives wrt mode   5: -4.69268D+00  2.41201D+00  2.75067D+00
 Vibrational polarizability contributions from mode   5       6.2792546       1.6589206       2.1574577
 Vibrational hyperpolarizability contributions from mode   5       0.0000000       0.0000000       0.0000000
 Dipole derivatives wrt mode   6: -5.31248D+00 -1.82825D+00  2.42747D+00
 Vibrational polarizability contributions from mode   6       5.8939862       0.6980511       1.2306151
 Vibrational hyperpolarizability contributions from mode   6       0.0000000       0.0000000       0.0000000
 Dipole derivatives wrt mode   7:  7.73846D+00  4.39485D+00 -5.27144D+00
 Vibrational polarizability contributions from mode   7      11.0111531       3.5515075       5.1095439
 Vibrational hyperpolarizability contributions from mode   7       0.0000000       0.0000000       0.0000000
 Dipole derivatives wrt mode   8:  7.36029D+00  2.32157D+00 -4.38820D+00
 Vibrational polarizability contributions from mode   8       6.3466706       0.6314229       2.2559500
 Vibrational hyperpolarizability contributions from mode   8       0.0000000       0.0000000       0.0000000
 Dipole derivatives wrt mode   9:  8.27517D+00  9.79641D-02 -1.90709D+00
 Vibrational polarizability contributions from mode   9       6.8197327       0.0009558       0.3622071
 Vibrational hyperpolarizability contributions from mode   9       0.0000000       0.0000000       0.0000000
 Dipole derivatives wrt mode  10: -3.02017D-01  2.84127D-01 -1.32637D+00
 Vibrational polarizability contributions from mode  10       0.0068668       0.0060774       0.1324410
 Vibrational hyperpolarizability contributions from mode  10       0.0000000       0.0000000       0.0000000
 Dipole derivatives wrt mode  11: -5.11496D-01  2.80186D+00 -1.73474D+00
 Vibrational polarizability contributions from mode  11       0.0126864       0.3806674       0.1459225
 Vibrational hyperpolarizability contributions from mode  11       0.0000000       0.0000000       0.0000000
 Dipole derivatives wrt mode  12:  5.47857D+00 -4.57373D+00  2.65906D-01
 Vibrational polarizability contributions from mode  12       1.2243988       0.8533532       0.0028843
 Vibrational hyperpolarizability contributions from mode  12       0.0000000       0.0000000       0.0000000
 Dipole derivatives wrt mode  13: -2.14909D+00  4.02632D+00  5.87971D-01
 Vibrational polarizability contributions from mode  13       0.1700507       0.5968777       0.0127286
 Vibrational hyperpolarizability contributions from mode  13       0.0000000       0.0000000       0.0000000
 Dipole derivatives wrt mode  14:  2.65613D+00 -6.43512D+00  3.16696D+00
 Vibrational polarizability contributions from mode  14       0.2536778       1.4890099       0.3606368
 Vibrational hyperpolarizability contributions from mode  14       0.0000000       0.0000000       0.0000000
 Dipole derivatives wrt mode  15:  7.51542D-01  1.18719D+00  8.55332D-01
 Vibrational polarizability contributions from mode  15       0.0153462       0.0382940       0.0198776
 Vibrational hyperpolarizability contributions from mode  15       0.0000000       0.0000000       0.0000000
 Dipole derivatives wrt mode  16:  6.12113D-03 -1.28118D+00  3.34302D-01
 Vibrational polarizability contributions from mode  16       0.0000010       0.0431845       0.0029402
 Vibrational hyperpolarizability contributions from mode  16       0.0000000       0.0000000       0.0000000
 Dipole derivatives wrt mode  17: -2.83711D+00  1.69534D-01  2.19377D+00
 Vibrational polarizability contributions from mode  17       0.1912949       0.0006831       0.1143756
 Vibrational hyperpolarizability contributions from mode  17       0.0000000       0.0000000       0.0000000
 Dipole derivatives wrt mode  18: -3.12326D+00  1.30234D+00  1.36074D+00
 Vibrational polarizability contributions from mode  18       0.2169751       0.0377260       0.0411851
 Vibrational hyperpolarizability contributions from mode  18       0.0000000       0.0000000       0.0000000
 Dipole derivatives wrt mode  19:  2.16990D+00  1.70584D+00 -5.43411D-01
 Vibrational polarizability contributions from mode  19       0.0870060       0.0537708       0.0054567
 Vibrational hyperpolarizability contributions from mode  19       0.0000000       0.0000000       0.0000000
 Dipole derivatives wrt mode  20:  4.41307D+00  4.07152D+00 -3.29138D+00
 Vibrational polarizability contributions from mode  20       0.3433388       0.2922510       0.1909844
 Vibrational hyperpolarizability contributions from mode  20       0.0000000       0.0000000       0.0000000
 Dipole derivatives wrt mode  21: -2.40002D+00  4.61982D-01  1.02394D+00
 Vibrational polarizability contributions from mode  21       0.0927267       0.0034358       0.0168782
 Vibrational hyperpolarizability contributions from mode  21       0.0000000       0.0000000       0.0000000
 Dipole derivatives wrt mode  22: -2.26095D-01  3.26392D+00 -1.13905D+00
 Vibrational polarizability contributions from mode  22       0.0007806       0.1626797       0.0198125
 Vibrational hyperpolarizability contributions from mode  22       0.0000000       0.0000000       0.0000000
 Dipole derivatives wrt mode  23: -8.21251D-01 -1.84895D+00  9.91433D-01
 Vibrational polarizability contributions from mode  23       0.0091705       0.0464823       0.0133649
 Vibrational hyperpolarizability contributions from mode  23       0.0000000       0.0000000       0.0000000
 Dipole derivatives wrt mode  24:  3.00277D+00  1.17294D+00  2.41766D+00
 Vibrational polarizability contributions from mode  24       0.1185021       0.0180815       0.0768201
 Vibrational hyperpolarizability contributions from mode  24       0.0000000       0.0000000       0.0000000
 Dipole derivatives wrt mode  25:  2.18950D+00  1.83463D+00  7.88130D-01
[...]
           D5           0.03796
           D6          -0.00950
           D7          -0.01703
           D8          -0.02459
           D9          -0.00065
           D10          0.00487
           D11         -0.00582
           D12          0.08189
 Angle between quadratic step and forces=  61.61 degrees.
 Linear search not attempted -- first point.
 Variable       Old X    -DE/DX   Delta X   Delta X   Delta X     New X
                                 (Linear)    (Quad)   (Total)
    B1        2.05266   0.00000   0.00000   0.00003   0.00003   2.05269
    B2        2.59202  -0.00001   0.00000  -0.00035  -0.00035   2.59167
    B3        2.68567   0.00004   0.00000   0.00042   0.00042   2.68609
    B4        2.05490   0.00000   0.00000   0.00000   0.00000   2.05490
    B5        3.71408  -0.00002   0.00000  -0.00018  -0.00018   3.71390
    B6        1.83034  -0.00005   0.00000  -0.00008  -0.00008   1.83026
    B7        2.82790   0.00001   0.00000   0.00009   0.00009   2.82800
    B8        2.06722  -0.00002   0.00000  -0.00002  -0.00002   2.06719
    B9        2.08000   0.00000   0.00000   0.00005   0.00005   2.08005
   B10        2.88704  -0.00002   0.00000  -0.00022  -0.00022   2.88681
   B11        2.06859   0.00001   0.00000   0.00005   0.00005   2.06864
   B12        2.06515   0.00000   0.00000   0.00005   0.00005   2.06520
   B13        2.06140   0.00001   0.00000  -0.00004  -0.00004   2.06136
   B14        2.05125  -0.00001   0.00000  -0.00009  -0.00009   2.05116
    A1        1.95031   0.00003   0.00000   0.00010   0.00010   1.95041
    A2        2.05306  -0.00028   0.00000  -0.00244  -0.00244   2.05062
    A3        2.06841   0.00001   0.00000   0.00083   0.00083   2.06924
    A4        1.58233   0.00001   0.00000  -0.00028  -0.00028   1.58204
    A5        1.99141   0.00003   0.00000   0.00180   0.00180   1.99321
    A6        2.14585  -0.00020   0.00000  -0.00119  -0.00119   2.14467
    A7        1.89739  -0.00016   0.00000  -0.00088  -0.00088   1.89651
    A8        1.84070   0.00000   0.00000  -0.00045  -0.00045   1.84024
    A9        2.00973   0.00016   0.00000   0.00137   0.00137   2.01109
   A10        1.94268   0.00005   0.00000   0.00042   0.00042   1.94310
   A11        1.93755   0.00001   0.00000  -0.00031  -0.00031   1.93724
   A12        1.90772   0.00003   0.00000   0.00018   0.00018   1.90790
   A13        2.05757   0.00000   0.00000   0.00072   0.00072   2.05829
    D1       -1.50561   0.00017   0.00000   0.00095   0.00095  -1.50466
    D2       -2.71787  -0.00003   0.00000  -0.00061  -0.00061  -2.71848
    D3        1.86216   0.00006   0.00000  -0.00021  -0.00021   1.86196
    D4        1.85737   0.00005   0.00000   0.00307   0.00307   1.86044
    D5       -1.79493  -0.00003   0.00000   0.00003   0.00003  -1.79490
    D6        0.56004  -0.00002   0.00000  -0.00754  -0.00754   0.55250
    D7       -1.41990  -0.00003   0.00000  -0.00696  -0.00696  -1.42686
    D8        2.73960  -0.00015   0.00000  -0.00730  -0.00730   2.73230
    D9        1.01222   0.00000   0.00000  -0.00301  -0.00301   1.00921
   D10        3.10629  -0.00001   0.00000  -0.00316  -0.00316   3.10313
   D11       -1.07633  -0.00007   0.00000  -0.00316  -0.00316  -1.07949
   D12        2.61717   0.00000   0.00000  -0.00112  -0.00112   2.61605
         Item               Value     Threshold  Converged?
 Maximum Force            0.000277     0.000450     YES
 RMS     Force            0.000080     0.000300     YES
 Maximum Displacement     0.007536     0.001800     NO 
 RMS     Displacement     0.002348     0.001200     NO 
 Predicted change in Energy=-1.743599D-06
 GradGradGradGradGradGradGradGradGradGradGradGradGradGradGradGradGradGrad


 Test job not archived.
 1\1\GINC-NODE24\Freq\RB3LYP\CBSB7\C4H10O1\MRHARPER\19-Oct-2009\1\\# fr
 eq geom=connectivity iop(7/33=1) b3lyp/cbsb7 nosymm\\TS: sBuOH = 1-but
 ene + H2O: frequency\\0,1\C\H,1,B1\H,1,B2,2,A1\C,1,B3,2,A2,3,D1,0\H,4,
 B4,1,A3,2,D2,0\O,4,B5,1,A4,2,D3,0\H,6,B6,4,A5,1,D4,0\C,4,B7,1,A6,6,D5,
 0\H,8,B8,4,A7,1,D6,0\H,8,B9,4,A8,1,D7,0\C,8,B10,4,A9,1,D8,0\H,11,B11,8
 ,A10,4,D9,0\H,11,B12,8,A11,4,D10,0\H,11,B13,8,A12,4,D11,0\H,1,B14,4,A1
 3,8,D12,0\\B1=1.08621964\B2=1.3716388\B3=1.42119768\B4=1.08740733\B5=1
 .96540604\B6=0.96857529\B7=1.49646287\B8=1.09392446\B9=1.10068989\B10=
 1.52775497\B11=1.09465067\B12=1.09282999\B13=1.09084752\B14=1.08547486
 \A1=111.74432914\A2=117.63177801\A3=118.51107194\A4=90.66069281\A5=114
 .09952993\A6=122.94842837\A7=108.71245344\A8=105.46412994\A9=115.14879
 345\A10=111.30749582\A11=111.01340012\A12=109.30446543\A13=117.8903553
 4\D1=-86.26538104\D2=-155.7225404\D3=106.69406147\D4=106.41944715\D5=-
 102.8420569\D6=32.08770356\D7=-81.35423605\D8=156.96748237\D9=57.99601
 04\D10=177.97753328\D11=-61.66909434\D12=149.95282136\\Version=AM64L-G
 03RevD.01\HF=-233.6388321\RMSD=4.755e-09\RMSF=3.511e-05\ZeroPoint=0.12
 77296\Thermal=0.1345231\Dipole=-0.6051197,0.2218856,-0.3534983\DipoleD
 eriv=-0.498218,0.3550635,0.0763441,0.0481343,-0.5930477,0.2116576,0.18
 85379,0.1252318,-0.0996655,0.1001071,-0.1034965,0.0338305,-0.0390532,0
 .0748616,-0.0544026,0.0028162,0.015048,-0.1046438,0.6675327,-0.0056385
 ,-0.2458475,0.1921637,0.0838063,-0.0985384,-0.307814,-0.0184998,0.2618
 974,0.5941326,0.1420915,-0.2832771,-0.0253818,0.7500637,-0.0509015,-0.
 276657,-0.0728813,0.455155,-0.0219152,0.0035937,-0.0136416,0.0367456,0
 .0159128,0.0116281,-0.0408359,0.0096376,-0.099425,-1.1853825,-0.132001
 8,0.4506439,-0.2126785,-0.5361914,0.135696,0.4369313,0.1023698,-0.5087
 041,0.2272909,-0.0587442,-0.0044692,0.0002952,0.2486915,-0.0560857,0.0
 199095,-0.019117,0.0685503,0.069353,0.060495,0.0329873,0.0365779,-0.03
 49117,-0.0797641,0.0065724,-0.1143937,0.021699,0.0318396,-0.0266217,-0
 .0827329,0.0148722,-0.0054625,0.0668422,-0.0577617,0.0492917,-0.065588
 8,-0.0934009,-0.0148058,0.0664314,0.0455098,-0.0290428,-0.0220349,0.06
 92278,-0.0156505,0.0443296,0.0489388,-0.0456763,0.0505626,-0.0333659,0
 .0536841,0.0326599,0.0620901,-0.0170738,0.1035894,-0.0198791,0.0226249
 ,-0.1153883,-0.0135181,0.0413591,0.0200134,-0.0872602,0.0706172,-0.101
 8918,0.0824992,-0.0183864,0.0024133,-0.0275861,-0.1524031,-0.0698287,-
 0.0076025,-0.1079839,-0.0090316,-0.0580117,-0.0028054,0.0481508,0.0675
 156,0.0845847,-0.0160215,0.0440094,0.0272888,0.0345214,0.0551135,-0.17
 5692,-0.0160073,-0.0902306,-0.0019046,-0.0309198,-0.0521632,-0.033885,
 -0.0007916\Polar=54.5824158,1.814215,64.228316,-7.6471473,-2.638587,54
 .0183655\PG=C01 [X(C4H10O1)]\NImag=1\\0.20908522,0.21381266,0.52779307
 ,0.04623651,-0.02906731,0.62228880,-0.02287079,-0.01567971,0.00644167,
 0.02719987,-0.01245236,-0.04702027,-0.00883287,0.00834222,0.04882347,-
 0.00537075,0.00037825,-0.32830488,0.00255964,-0.00127442,0.35014106,0.
 01252762,-0.03771618,0.00193821,0.00095527,-0.00041288,-0.00138422,-0.
 01063076,0.06566689,-0.05875868,-0.01380038,-0.00281335,-0.00073517,0.
 00022750,-0.07546724,0.03463107,-0.05662684,0.02932943,-0.02802010,0.0
 1761911,-0.00511837,-0.00352011,0.06979173,0.05266787,0.00251197,-0.09
 070117,0.01705183,-0.01291659,0.00397696,-0.00005742,-0.00005862,0.036
 17769,0.07025648,-0.05369870,0.16592687,-0.07874711,-0.24846859,0.1054
 4003,0.00774795,-0.00000622,-0.00197028,0.05528214,0.01827751,-0.03121
 637,0.00729192,0.56580810,0.03013245,0.06711629,-0.15444574,-0.0090215
 4,0.03256478,-0.01232419,-0.04460310,-0.03789624,0.04132893,0.17496457
 ,-0.04002922,0.57673329,0.00991628,-0.00466908,0.00192869,0.00404638,-
 0.00116140,0.00058995,-0.00332707,-0.00529230,0.00396509,-0.06982356,0
 .00748786,-0.09794973,0.07421163,0.00502182,0.00186531,0.02599786,0.00
 164802,-0.00430513,0.00146600,0.00124644,0.00160989,-0.00154805,0.0049
 1019,-0.05687269,0.01788474,-0.00587232,0.05661205,-0.00473364,0.00017
 007,-0.00951024,-0.00235623,0.00250350,0.00044681,0.00203282,0.0017458
 8,-0.00173422,-0.09613976,0.01794367,-0.29296450,0.09980221,-0.0188857
 2,0.30832313,-0.01592112,-0.02723060,0.03246965,-0.00888060,0.00108113
 ,0.00134103,-0.01927251,-0.03107233,0.01646281,0.00848304,0.00822543,-
 0.03597919,-0.01741828,0.00513744,0.00574708,0.08411385,-0.06447993,0.
 03319908,0.02055574,-0.00089875,0.00037997,0.00098713,0.04477888,-0.01
 026906,-0.05499431,-0.04219019,-0.03834543,0.04460867,0.00817011,-0.00
 208942,-0.00357257,0.01335321,0.07467499,0.05418907,0.00835561,-0.0085
 3964,0.00013576,0.00062529,-0.00009689,-0.02717207,-0.00061934,-0.0064
 1312,-0.00534588,0.00523579,-0.03009747,-0.00638241,0.00167310,0.00496
 844,-0.07834839,0.09779422,0.52244044,-0.00369716,-0.00893397,0.000871
 58,-0.00050521,-0.00006001,0.00001323,-0.00440442,-0.00049246,0.003508
 04,0.01413405,0.00268243,0.00569095,-0.00068389,0.00032836,-0.00089178
 ,-0.01836553,0.02293243,0.04595723,0.01836635,-0.00929690,0.00277824,0
 .00024488,0.00089034,-0.00035478,-0.00009943,0.01330829,0.01422582,0.0
 0645606,-0.01198066,-0.00512427,-0.00399222,-0.00036527,0.00044776,0.0
 0070902,0.02202592,-0.05121004,-0.10408743,-0.01818941,0.04069317,0.00
 365696,0.00025093,0.00134400,-0.00045465,-0.00001440,0.00006981,-0.002
 26052,-0.00758537,-0.00360117,0.00643500,0.00318281,-0.00235609,-0.000
 31433,0.00009504,0.00057674,0.05044047,-0.09889988,-0.47581177,-0.0566
 2366,0.10223480,0.47828947,0.00496612,-0.00227649,-0.00216733,-0.00222
 758,0.00185444,-0.00016625,-0.00044275,-0.00348263,0.00321688,-0.06576
 587,-0.02492309,-0.02382859,0.00461729,-0.01287519,-0.00675036,-0.0121
 5432,0.01019504,0.01347932,-0.00327836,0.00332236,-0.00198146,0.543637
 94,-0.00161014,-0.02513265,-0.01217007,-0.00095212,0.00179311,-0.00186
 760,-0.00103932,-0.00208514,0.00112484,-0.02322558,-0.17661358,-0.0541
 3694,-0.00033170,0.00360880,0.00299981,0.00565615,-0.00324522,-0.00530
 432,0.00108298,-0.00058307,0.00038945,-0.01058517,0.47557846,0.0032198
 0,0.00928307,0.01179196,0.00195360,0.00048207,0.00115364,-0.00156186,0
 .00034266,0.00023248,-0.01944949,-0.05135496,-0.12093621,-0.00151911,-
 0.02432343,-0.01212503,0.00523275,-0.00127307,-0.00459223,0.00051657,-
 0.00119914,0.00082288,0.03511428,-0.00987268,0.53796157,0.00046273,-0.
 00012860,0.00002499,-0.00017469,-0.00047007,0.00039456,0.00025087,0.00
 014373,-0.00021783,-0.00301042,0.00276784,-0.00169845,0.00123012,-0.00
 034490,0.00061299,0.00081694,-0.00079303,0.00034618,-0.00020644,0.0001
 3796,0.00008553,-0.12455596,0.02071549,-0.11845244,0.13323481,0.001364
 97,0.00041605,-0.00092469,-0.00020669,0.00005244,0.00090277,-0.0007816
 4,-0.00057808,0.00050619,-0.01704208,0.00351297,-0.02711604,0.00014291
 ,-0.00466304,-0.00256204,-0.00045027,0.00090563,0.00057484,-0.00024965
 ,0.00014028,0.00017462,0.02294288,-0.05501619,0.03638531,-0.02239434,0
 .06381139,0.00153554,0.00151971,0.00133688,-0.00048477,-0.00034429,0.0
 0047035,-0.00036217,-0.00039803,-0.00011052,-0.01064552,-0.00055061,-0
 .01915348,-0.00048385,-0.00281259,-0.00049692,-0.00003317,0.00026811,0
 .00105125,-0.00014465,0.00055024,0.00023031,-0.11607286,0.03491382,-0.
 21843842,0.12799070,-0.03788063,0.23989550,0.00269267,-0.00127155,0.00
 001595,-0.00046977,0.00014304,-0.00013553,-0.00164048,-0.00107418,0.00
 076780,-0.00161271,0.00284316,0.00104713,-0.00006328,0.00070702,0.0003
 4066,0.00248802,0.00058211,-0.00060851,0.00001516,0.00022441,0.0000419
 6,-0.24722607,0.05670384,0.06541053,-0.01684944,0.00527122,0.00515642,
 0.27335538,-0.00096838,-0.00161646,-0.00029463,0.00041323,-0.00027178,
 0.00035633,-0.00103931,0.00073545,-0.00014714,0.02693581,-0.00936402,-
 0.00749473,-0.00099903,0.00070727,-0.00013921,0.00115932,-0.00038001,-
 0.00300083,0.00042124,-0.00109250,0.00066959,0.06091419,-0.06125425,-0
 .02217285,0.00382140,-0.00184887,-0.00117863,-0.06390790,0.07080139,-0
 .00146891,0.00041861,0.00041833,0.00006356,-0.00005658,-0.00003177,0.0
 0102328,0.00116117,-0.00107259,0.01591647,-0.00621195,-0.00615748,-0.0
 0122822,0.00060846,0.00002044,0.00076904,-0.00222672,-0.00081060,0.000
 39063,-0.00021742,0.00040712,0.06886898,-0.02103746,-0.06796535,-0.023
 61555,0.00755388,0.00870690,-0.07767008,0.02186261,0.07286965,0.001941
 13,0.00050811,-0.00033670,-0.00029616,-0.00000335,0.00018587,0.0006105
 3,-0.00103619,-0.00047614,-0.00240030,-0.00244631,0.00134478,-0.000239
 69,-0.00005502,0.00066275,-0.00132090,-0.00045212,0.00156786,0.0001896
 0,0.00068992,0.00001488,-0.09446767,-0.03520219,0.02215312,0.00800990,
 0.01363187,-0.00857669,-0.01202948,-0.02477350,0.01646193,0.54961598,-
 0.00253678,-0.00091141,-0.00249379,-0.00024846,0.00009501,0.00007844,0
 .00031257,-0.00011525,-0.00024925,-0.01118819,-0.03238323,0.01438804,0
 .00104121,0.00197305,0.00069996,-0.00128183,-0.00233786,0.00129520,-0.
 00020657,0.00027984,-0.00003584,-0.03310347,-0.13491659,0.04525159,-0.
 00219699,-0.00503067,0.00361729,0.00250423,0.00559989,-0.00339342,-0.0
 3442861,0.51799804,0.00094848,-0.00373194,-0.00263659,-0.00047849,0.00
 016421,0.00032930,-0.00080958,-0.00056231,0.00094177,-0.00679261,-0.01
 054217,0.01304438,-0.00008007,-0.00096047,0.00078135,0.00049584,-0.000
 16312,-0.00057389,0.00011336,-0.00017907,0.00009687,0.02308836,0.04683
 323,-0.11624154,0.01229404,0.02078822,-0.01400196,0.00412642,0.0089906
 5,-0.00631952,0.02030423,0.04494697,0.53446322,-0.00018027,0.00010662,
 0.00030033,0.00007770,-0.00007753,-0.00007367,-0.00005021,0.00011560,0
 .00008036,0.00062595,0.00018647,-0.00007592,0.00010532,0.00040586,-0.0
 0021764,0.00021189,0.00035333,0.00014476,-0.00004208,0.00021581,0.0000
 0230,0.00809488,-0.00280694,0.01340365,-0.00027137,-0.00275737,0.00175
 642,0.00095828,0.00081180,-0.00015013,-0.12841011,0.02673964,-0.116898
 98,0.13565901,-0.00029584,-0.00010148,-0.00019740,0.00000603,0.0000962
 1,-0.00020726,-0.00006735,0.00002766,0.00005475,0.00121852,0.00161475,
 0.00168301,-0.00036735,-0.00030263,-0.00085254,-0.00005673,0.00001104,
 -0.00046332,0.00014160,-0.00021842,-0.00003861,0.01476832,-0.00585733,
 0.02080103,-0.00245678,-0.00335066,0.00252756,-0.00011146,0.00090170,-
 0.00067341,0.02603965,-0.05546872,0.03655052,-0.02705450,0.05865091,0.
 00028197,0.00021083,0.00027569,0.00002577,-0.00020388,0.00007121,0.000
 05767,-0.00010382,-0.00007236,-0.00021003,-0.00138842,0.00040615,0.000
 06686,0.00077691,0.00069977,-0.00002703,0.00005413,0.00023128,-0.00003
 672,0.00008277,0.00001105,-0.01005969,0.00346057,-0.01586680,0.0023352
 7,0.00275085,-0.00068580,0.00024667,-0.00045210,0.00014155,-0.11520068
 ,0.03750659,-0.21344534,0.12734587,-0.04448586,0.23350634,0.00045524,-
 0.00057038,-0.00060878,-0.00000638,0.00001983,0.00002832,-0.00065597,-
 0.00022901,0.00052328,-0.00138617,-0.00203046,0.00267362,0.00007547,0.
 00027075,0.00015774,0.00081438,0.00167793,-0.00069875,0.00001100,-0.00
 020772,-0.00002381,-0.00230107,-0.01153013,-0.00847839,0.00047873,0.00
 058631,0.00006422,0.00020142,0.00034958,-0.00063651,-0.04805734,-0.010
 41243,-0.00642144,-0.00151439,-0.01609931,-0.00976237,0.04721613,-0.00
 009761,-0.00090342,-0.00097241,-0.00020665,0.00011124,0.00006367,-0.00
 022353,-0.00012872,0.00013637,-0.00152473,-0.00220403,0.00427087,0.000
 04258,0.00018742,0.00000333,0.00010880,-0.00043391,-0.00001909,-0.0000
 8197,0.00003886,0.00004016,-0.00049722,-0.01881649,-0.01409828,0.00071
 362,0.00039850,0.00004883,-0.00028759,0.00087869,-0.00019619,-0.011152
 75,-0.22910115,-0.11876442,-0.00007680,0.00618700,0.00337192,0.0137794
 0,0.25054731,-0.00011392,0.00084928,0.00085635,0.00013302,-0.00013343,
 -0.00001992,0.00048781,0.00020973,-0.00036572,0.00151296,0.00244846,-0
 .00252529,0.00023791,0.00025396,0.00022537,-0.00023613,-0.00082925,0.0
 0055697,-0.00009583,0.00024866,0.00001951,0.00126944,0.01739483,0.0110
 1442,-0.00053305,-0.00056169,0.00084715,-0.00040130,-0.00080033,0.0007
 1733,-0.00737686,-0.12095777,-0.12600536,-0.00021879,-0.02191679,-0.01
 429173,0.00686190,0.12972336,0.13462773,0.00087632,-0.00072430,-0.0001
 9770,-0.00004150,0.00007349,-0.00004507,-0.00118518,-0.00024895,0.0009
 0860,-0.00024226,0.00114696,0.00029369,-0.00017885,-0.00011542,-0.0000
 5044,0.00068837,0.00266884,-0.00140594,0.00010711,-0.00033137,0.000082
 90,-0.01335648,0.00158040,0.00474429,0.00066810,-0.00007919,-0.0000131
 3,0.00042376,-0.00205012,0.00145754,-0.27319628,0.06416562,0.06974730,
 -0.01522604,0.00434570,0.00497282,0.00461059,-0.00071288,-0.00139677,0
 .29618849,0.00149512,-0.00015267,-0.00046689,0.00001738,0.00007167,-0.
 00007736,-0.00164884,-0.00100737,0.00131116,-0.00319193,0.00243478,0.0
 0187756,0.00002741,-0.00006598,-0.00015648,0.00213498,0.00094498,-0.00
 142077,0.00028713,-0.00008407,-0.00011341,-0.02395550,0.00432633,0.006
 95004,0.00045091,0.00086927,-0.00031070,-0.00255661,-0.00396326,0.0024
 5026,0.06835849,-0.06450125,-0.02235413,0.00379215,-0.00212511,-0.0017
 0041,0.02455522,-0.00634084,-0.00623276,-0.06977617,0.06952097,-0.0005
 0011,0.00028374,0.00007493,0.00000600,0.00000014,0.00000711,0.00033565
 ,0.00012308,-0.00010929,-0.00004717,-0.00115002,0.00000730,-0.00002421
 ,0.00007798,0.00007093,-0.00048747,-0.00066936,-0.00058599,-0.00020082
 ,-0.00064252,-0.00009729,0.01835254,-0.00344133,-0.00643629,0.00006380
 ,-0.00071108,0.00009417,0.00148773,0.00317110,-0.00114281,0.06902495,-
 0.02084782,-0.07072459,-0.02534543,0.00731090,0.00897325,0.01630622,-0
 .00368848,-0.00559386,-0.07910050,0.02025953,0.07550261,-0.10955282,-0
 .13227836,-0.07400047,-0.00078350,0.00318089,0.00212151,-0.00891262,-0
 .01497405,-0.00582419,0.00561793,0.01248481,-0.00299067,-0.00246788,-0
 .00041306,0.00178361,-0.00428322,0.00410215,0.00414177,-0.00164017,-0.
 00044368,0.00089843,0.00445989,0.00154444,-0.00228730,-0.00008388,0.00
 002107,0.00031351,-0.00024346,-0.00108833,-0.00018203,0.00005080,0.000
 84005,0.00036316,-0.00003854,-0.00001049,-0.00003639,0.00005835,0.0002
 1731,-0.00013039,-0.00013614,0.00001027,0.00012884,0.11795525,-0.11687
 641,-0.18298613,-0.08301806,0.00194056,0.00127022,0.00103623,0.0034679
 9,0.00417006,0.00168682,-0.01726397,-0.02226605,-0.01372857,0.00214637
 ,0.00128735,-0.00060669,0.00120939,-0.00180474,-0.00063896,0.00033787,
 0.00006318,-0.00034991,-0.00229847,-0.00178619,0.00479866,0.00003376,0
 .00038096,0.00002992,0.00023025,0.00016676,-0.00004182,0.00032201,-0.0
 0117970,-0.00101618,0.00004587,-0.00006492,0.00011993,-0.00015958,-0.0
 0042047,0.00030375,0.00005738,0.00007255,-0.00007584,0.12680698,0.2030
 9712,-0.07138661,-0.08536658,-0.10692974,-0.01614245,-0.02036175,-0.00
 839151,0.00248634,0.00448761,0.00000404,0.00647539,0.01016324,0.009440
 41,0.00139123,-0.00030379,0.00071792,0.00215271,-0.00163973,-0.0017267
 9,0.00093188,-0.00010920,-0.00000143,-0.00236327,0.00071385,-0.0003750
 9,0.00036926,0.00011950,0.00025460,0.00017416,0.00063018,0.00021879,0.
 00024671,0.00019380,0.00029188,-0.00005312,-0.00009258,0.00004574,0.00
 001475,0.00008037,-0.00006295,0.00000241,-0.00001564,-0.00004019,0.075
 70061,0.09150073,0.10655433\\-0.00003407,0.00009271,-0.00001512,-0.000
 00729,-0.00004541,0.00000210,0.00001321,0.00000616,0.00000769,0.000053
 62,-0.00003733,-0.00004387,-0.00001649,-0.00000256,0.00001042,0.000046
 11,0.00004692,0.00006174,-0.00001304,-0.00003615,-0.00004037,-0.000037
 81,-0.00008853,0.00002556,0.00001606,0.00007387,0.00003259,0.00000374,
 -0.00000681,0.00001515,0.00000942,0.00005616,-0.00005037,-0.00001197,-
 0.00002001,0.00001452,0.00000400,-0.00000536,0.00000397,-0.00002206,-0
 .00002558,-0.00002108,-0.00000344,-0.00000809,-0.00000294\\\@


 WE HAVE SEEN THAT MAN ON THE AVERAGE DOES NOT LIVE ABOVE
 TWO-AND-TWENTY YEARS.  DURING THESE TWO AND TWENTY
 YEARS HE IS LIABLE TO TWO AND TWENTY THOUSAND EVILS,
 MANY OF WHICH ARE INCURABLE.  YET EVEN IN THIS DREADFUL STATE
 MEN STILL STRUT AND POSE ON THE STAGE OF LIFE.
 THEY MAKE LOVE AT THE RISK OF DESTRUCTION,
 INTRIGUE, CARRY ON WAR, AND FORM PROJECTS, JUST AS IF THEY
 WERE TO LIVE IN LUXURY AND HAPPINESS FOR A THOUSAND
 AGES.

                                              -- VOLTAIRE
 Job cpu time:  0 days  0 hours 24 minutes  0.7 seconds.
 File lengths (MBytes):  RWF=     37 Int=      0 D2E=      0 Chk=     11 Scr=      1
 Normal termination of Gaussian 03 at Mon Oct 19 16:37:27 2009.
