 Entering Gaussian System, Link 0=g03
 Input=TS1-geom.com
 Output=TS1-geom.log
 Initial command:
 /opt/g03/l1.exe /scratch/mrharper/Gau-9715.inp -scrdir=/scratch/mrharper/
 Entering Link 1 = /opt/g03/l1.exe PID=      9717.
  
 Copyright (c) 1988,1990,1992,1993,1995,1998,2003,2004, Gaussian, Inc.
                  All Rights Reserved.
  
 This is the Gaussian(R) 03 program.  It is based on the
 the Gaussian(R) 98 system (copyright 1998, Gaussian, Inc.),
 the Gaussian(R) 94 system (copyright 1995, Gaussian, Inc.),
 the Gaussian 92(TM) system (copyright 1992, Gaussian, Inc.),
 the Gaussian 90(TM) system (copyright 1990, Gaussian, Inc.),
 the Gaussian 88(TM) system (copyright 1988, Gaussian, Inc.),
 the Gaussian 86(TM) system (copyright 1986, Carnegie Mellon
 University), and the Gaussian 82(TM) system (copyright 1983,
 Carnegie Mellon University). Gaussian is a federally registered
 trademark of Gaussian, Inc.
  
 This software contains proprietary and confidential information,
 including trade secrets, belonging to Gaussian, Inc.
  
 This software is provided under written license and may be
 used, copied, transmitted, or stored only in accord with that
 written license.
  
 The following legend is applicable only to US Government
 contracts under FAR:
  
                    RESTRICTED RIGHTS LEGEND
  
 Use, reproduction and disclosure by the US Government is
 subject to restrictions as set forth in subparagraphs (a)
 and (c) of the Commercial Computer Software - Restricted
 Rights clause in FAR 52.227-19.
  
 Gaussian, Inc.
 340 Quinnipiac St., Bldg. 40, Wallingford CT 06492
  
  
 ---------------------------------------------------------------
 Warning -- This program may not be used in any manner that
 competes with the business of Gaussian, Inc. or will provide
 assistance to any competitor of Gaussian, Inc.  The licensee
 of this program is prohibited from giving any competitor of
 Gaussian, Inc. access to this program.  By using this program,
 the user acknowledges that Gaussian, Inc. is engaged in the
 business of creating and licensing software in the field of
 computational chemistry and represents and warrants to the
 licensee that it is not a competitor of Gaussian, Inc. and that
 it will not use this program in any manner prohibited above.
 ---------------------------------------------------------------
  

 Cite this work as:
 Gaussian 03, Revision D.01,
 M. J. Frisch, G. W. Trucks, H. B. Schlegel, G. E. Scuseria, 
 M. A. Robb, J. R. Cheeseman, J. A. Montgomery, Jr., T. Vreven, 
 K. N. Kudin, J. C. Burant, J. M. Millam, S. S. Iyengar, J. Tomasi, 
 V. Barone, B. Mennucci, M. Cossi, G. Scalmani, N. Rega, 
 G. A. Petersson, H. Nakatsuji, M. Hada, M. Ehara, K. Toyota, 
 R. Fukuda, J. Hasegawa, M. Ishida, T. Nakajima, Y. Honda, O. Kitao, 
 H. Nakai, M. Klene, X. Li, J. E. Knox, H. P. Hratchian, J. B. Cross, 
 V. Bakken, C. Adamo, J. Jaramillo, R. Gomperts, R. E. Stratmann, 
 O. Yazyev, A. J. Austin, R. Cammi, C. Pomelli, J. W. Ochterski, 
 P. Y. Ayala, K. Morokuma, G. A. Voth, P. Salvador, J. J. Dannenberg, 
 V. G. Zakrzewski, S. Dapprich, A. D. Daniels, M. C. Strain, 
 O. Farkas, D. K. Malick, A. D. Rabuck, K. Raghavachari, 
 J. B. Foresman, J. V. Ortiz, Q. Cui, A. G. Baboul, S. Clifford, 
 J. Cioslowski, B. B. Stefanov, G. Liu, A. Liashenko, P. Piskorz, 
 I. Komaromi, R. L. Martin, D. J. Fox, T. Keith, M. A. Al-Laham, 
 C. Y. Peng, A. Nanayakkara, M. Challacombe, P. M. W. Gill, 
 B. Johnson, W. Chen, M. W. Wong, C. Gonzalez, and J. A. Pople, 
 Gaussian, Inc., Wallingford CT, 2004.
 
 ******************************************
 Gaussian 03:  AM64L-G03RevD.01 13-Oct-2005
                19-Oct-2009 
 ******************************************
 %chk=TS1-geom.chk
 %mem=1000mb
 %nproc=8
 Will use up to    8 processors via shared memory.
 -------------------------------------------
 # opt=(calcfc,ts) geom=connectivity cbs-qb3
 -------------------------------------------
 1/5=1,10=4,14=-1,18=20,26=3,38=1,57=2/1,3;
 2/9=110,17=6,18=5,40=1/2;
 3/5=4,6=6,7=700,11=2,16=1,25=1,30=1,74=-5/1,2,3;
 4//1;
 5/5=2,38=5/2;
 8/6=4,10=90,11=11/1;
 11/6=1,8=1,9=11,15=111,16=1/1,2,10;
 10/6=1,7=6/2;
 6/7=2,8=2,9=2,10=2,28=1/1;
 7/10=1,18=20,25=1/1,2,3,16;
 1/5=1,10=4,14=-1,18=20/3(3);
 2/9=110/2;
 6/7=2,8=2,9=2,10=2,19=2,28=1/1;
 99//99;
 2/9=110/2;
 3/5=4,6=6,7=700,11=2,16=1,25=1,30=1,74=-5/1,2,3;
 4/5=5,16=3/1;
 5/5=2,38=5/2;
 7//1,2,3,16;
 1/5=1,14=-1,18=20/3(-5);
 2/9=110/2;
 6/7=2,8=2,9=2,10=2,19=2,28=1/1;
 99/9=1/99;
 ----------------------------------
 TS: sBuOH = C4H8-1 + H2O: geometry
 ----------------------------------
 Symbolic Z-matrix:
 Charge =  0 Multiplicity = 1
 C
 H                    1    B1
 H                    1    B2       2    A1
 C                    1    B3       2    A2       3    D1       0
 H                    4    B4       1    A3       2    D2       0
 O                    4    B5       1    A4       2    D3       0
 H                    6    B6       4    A5       1    D4       0
 C                    4    B7       1    A6       6    D5       0
 H                    8    B8       4    A7       1    D6       0
 H                    8    B9       4    A8       1    D7       0
 C                    8    B10      4    A9       1    D8       0
 H                    11   B11      8    A10      4    D9       0
 H                    11   B12      8    A11      4    D10      0
 H                    11   B13      8    A12      4    D11      0
 H                    1    B14      4    A13      8    D12      0
       Variables:
  B1                    1.08894                  
  B2                    1.38955                  
  B3                    1.42167                  
  B4                    1.09019                  
  B5                    1.96984                  
  B6                    0.97615                  
  B7                    1.49973                  
  B8                    1.0963                   
  B9                    1.1028                   
  B10                   1.52891                  
  B11                   1.09728                  
  B12                   1.09544                  
  B13                   1.09336                  
  B14                   1.0881                   
  A1                  111.46613                  
  A2                  117.48455                  
  A3                  118.69169                  
  A4                   90.56129                  
  A5                  111.15669                  
  A6                  122.99744                  
  A7                  108.72174                  
  A8                  105.61837                  
  A9                  115.11834                  
  A10                 111.29665                  
  A11                 110.94848                  
  A12                 109.5585                   
  A13                 118.04792                  
  D1                  -86.11054                  
  D2                 -155.81768                  
  D3                  106.59917                  
  D4                  103.18338                  
  D5                 -102.64789                  
  D6                   32.09488                  
  D7                  -81.43977                  
  D8                  156.96479                  
  D9                   57.28388                  
  D10                 177.14893                  
  D11                 -62.41509                  
  D12                 149.79808                  
 

 GradGradGradGradGradGradGradGradGradGradGradGradGradGradGradGradGradGrad
 Berny optimization.
 Initialization pass.
                           ----------------------------
                           !    Initial Parameters    !
                           ! (Angstroms and Degrees)  !
 --------------------------                            --------------------------
 ! Name  Definition              Value          Derivative Info.                !
 --------------------------------------------------------------------------------
 ! R1    R(1,2)                  1.0889         calculate D2E/DX2 analytically  !
 ! R2    R(1,3)                  1.3895         calculate D2E/DX2 analytically  !
 ! R3    R(1,4)                  1.4217         calculate D2E/DX2 analytically  !
 ! R4    R(1,15)                 1.0881         calculate D2E/DX2 analytically  !
 ! R5    R(3,6)                  1.2859         calculate D2E/DX2 analytically  !
 ! R6    R(4,5)                  1.0902         calculate D2E/DX2 analytically  !
 ! R7    R(4,8)                  1.4997         calculate D2E/DX2 analytically  !
 ! R8    R(6,7)                  0.9762         calculate D2E/DX2 analytically  !
 ! R9    R(8,9)                  1.0963         calculate D2E/DX2 analytically  !
 ! R10   R(8,10)                 1.1028         calculate D2E/DX2 analytically  !
 ! R11   R(8,11)                 1.5289         calculate D2E/DX2 analytically  !
 ! R12   R(11,12)                1.0973         calculate D2E/DX2 analytically  !
 ! R13   R(11,13)                1.0954         calculate D2E/DX2 analytically  !
 ! R14   R(11,14)                1.0934         calculate D2E/DX2 analytically  !
 ! A1    A(2,1,3)              111.4661         calculate D2E/DX2 analytically  !
 ! A2    A(2,1,4)              117.4845         calculate D2E/DX2 analytically  !
 ! A3    A(2,1,15)             115.5255         calculate D2E/DX2 analytically  !
 ! A4    A(3,1,4)               77.0035         calculate D2E/DX2 analytically  !
 ! A5    A(3,1,15)             110.4848         calculate D2E/DX2 analytically  !
 ! A6    A(4,1,15)             118.0479         calculate D2E/DX2 analytically  !
 ! A7    A(1,3,6)              131.5842         calculate D2E/DX2 analytically  !
 ! A8    A(1,4,5)              118.6917         calculate D2E/DX2 analytically  !
 ! A9    A(1,4,8)              122.9974         calculate D2E/DX2 analytically  !
 ! A10   A(5,4,8)              115.3956         calculate D2E/DX2 analytically  !
 ! A11   A(3,6,7)              110.1225         calculate D2E/DX2 analytically  !
 ! A12   A(4,8,9)              108.7217         calculate D2E/DX2 analytically  !
 ! A13   A(4,8,10)             105.6184         calculate D2E/DX2 analytically  !
 ! A14   A(4,8,11)             115.1183         calculate D2E/DX2 analytically  !
 ! A15   A(9,8,10)             106.1288         calculate D2E/DX2 analytically  !
 ! A16   A(9,8,11)             110.7328         calculate D2E/DX2 analytically  !
 ! A17   A(10,8,11)            110.0337         calculate D2E/DX2 analytically  !
 ! A18   A(8,11,12)            111.2967         calculate D2E/DX2 analytically  !
 ! A19   A(8,11,13)            110.9485         calculate D2E/DX2 analytically  !
 ! A20   A(8,11,14)            109.5585         calculate D2E/DX2 analytically  !
 ! A21   A(12,11,13)           107.664          calculate D2E/DX2 analytically  !
 ! A22   A(12,11,14)           108.2636         calculate D2E/DX2 analytically  !
 ! A23   A(13,11,14)           109.0325         calculate D2E/DX2 analytically  !
 ! D1    D(2,1,3,6)           -112.5577         calculate D2E/DX2 analytically  !
 ! D2    D(4,1,3,6)              2.1625         calculate D2E/DX2 analytically  !
 ! D3    D(15,1,3,6)           117.5617         calculate D2E/DX2 analytically  !
 ! D4    D(2,1,4,5)           -155.8177         calculate D2E/DX2 analytically  !
 ! D5    D(2,1,4,8)              3.9513         calculate D2E/DX2 analytically  !
 ! D6    D(3,1,4,5)             96.5274         calculate D2E/DX2 analytically  !
 ! D7    D(3,1,4,8)           -103.7037         calculate D2E/DX2 analytically  !
 ! D8    D(15,1,4,5)            -9.9709         calculate D2E/DX2 analytically  !
 ! D9    D(15,1,4,8)           149.7981         calculate D2E/DX2 analytically  !
 ! D10   D(1,3,6,7)           -105.3705         calculate D2E/DX2 analytically  !
 ! D11   D(1,4,8,9)             32.0949         calculate D2E/DX2 analytically  !
 ! D12   D(1,4,8,10)           -81.4398         calculate D2E/DX2 analytically  !
 ! D13   D(1,4,8,11)           156.9648         calculate D2E/DX2 analytically  !
 ! D14   D(5,4,8,9)           -167.526          calculate D2E/DX2 analytically  !
 ! D15   D(5,4,8,10)            78.9393         calculate D2E/DX2 analytically  !
 ! D16   D(5,4,8,11)           -42.6561         calculate D2E/DX2 analytically  !
 ! D17   D(4,8,11,12)           57.2839         calculate D2E/DX2 analytically  !
 ! D18   D(4,8,11,13)          177.1489         calculate D2E/DX2 analytically  !
 ! D19   D(4,8,11,14)          -62.4151         calculate D2E/DX2 analytically  !
 ! D20   D(9,8,11,12)         -178.9018         calculate D2E/DX2 analytically  !
 ! D21   D(9,8,11,13)          -59.0367         calculate D2E/DX2 analytically  !
 ! D22   D(9,8,11,14)           61.3992         calculate D2E/DX2 analytically  !
 ! D23   D(10,8,11,12)         -61.8892         calculate D2E/DX2 analytically  !
 ! D24   D(10,8,11,13)          57.9759         calculate D2E/DX2 analytically  !
 ! D25   D(10,8,11,14)         178.4118         calculate D2E/DX2 analytically  !
 --------------------------------------------------------------------------------
 Trust Radius=3.00D-01 FncErr=1.00D-07 GrdErr=1.00D-06
 Number of steps in this run=  72 maximum allowed number of steps= 100.
 Search for a saddle point of order  1.
 GradGradGradGradGradGradGradGradGradGradGradGradGradGradGradGradGradGrad

                          Input orientation:                          
 ---------------------------------------------------------------------
 Center     Atomic     Atomic              Coordinates (Angstroms)
 Number     Number      Type              X           Y           Z
 ---------------------------------------------------------------------
    1          6             0        0.000000    0.000000    0.000000
    2          1             0        0.000000    0.000000    1.088937
    3          1             0        1.293159    0.000000   -0.508506
    4          6             0        0.085550    1.258305   -0.656112
    5          1             0       -0.301117    1.346434   -1.671613
    6          8             0        1.952411    0.888245   -1.164215
    7          1             0        2.017652    0.632276   -2.103947
    8          6             0        0.260455    2.553107    0.080147
    9          1             0        0.852895    2.366925    0.983601
   10          1             0       -0.747360    2.835628    0.427496
   11          6             0        0.869055    3.689813   -0.741475
   12          1             0        0.272134    3.897017   -1.638563
   13          1             0        0.919294    4.613638   -0.154956
   14          1             0        1.878366    3.413027   -1.057890
   15          1             0       -0.593549   -0.782189   -0.468876
 ---------------------------------------------------------------------
                    Distance matrix (angstroms):
                    1          2          3          4          5
     1  C    0.000000
     2  H    1.088937   0.000000
     3  H    1.389546   2.055258   0.000000
     4  C    1.421666   2.153102   1.750268   0.000000
     5  H    2.167451   3.086129   2.389020   1.090193   0.000000
     6  O    2.440550   3.110881   1.285903   1.969843   2.354948
     7  H    2.982832   3.829517   1.862819   2.494225   2.464472
     8  C    2.567609   2.757508   2.816264   1.499727   2.200020
     9  H    2.701339   2.518106   2.832411   2.122855   3.069741
    10  H    2.963458   3.006133   3.616712   2.087078   2.612105
    11  C    3.862611   4.209559   3.721405   2.556051   2.779548
    12  H    4.236235   4.764457   4.184049   2.821848   2.614418
    13  H    4.706885   4.866007   4.642244   3.493501   3.803193
    14  H    4.036848   4.448132   3.506144   2.831685   3.065552
    15  H    1.088101   1.841440   2.042806   2.158668   2.462342
                    6          7          8          9         10
     6  O    0.000000
     7  H    0.976152   0.000000
     8  C    2.680097   3.398176   0.000000
     9  H    2.829937   3.728085   1.096302   0.000000
    10  H    3.689798   4.348362   1.102797   1.757769   0.000000
    11  C    3.033340   3.538946   1.528907   2.173978   2.170005
    12  H    3.478656   3.731213   2.181787   3.090988   2.536634
    13  H    3.995558   4.566859   2.176035   2.519611   2.505655
    14  H    2.528104   2.974258   2.156902   2.512689   3.071514
    15  H    3.123421   3.390065   3.486395   3.757500   3.730381
                   11         12         13         14         15
    11  C    0.000000
    12  H    1.097276   0.000000
    13  H    1.095437   1.770156   0.000000
    14  H    1.093361   1.775221   1.782295   0.000000
    15  H    4.712995   4.900260   5.612681   4.904808   0.000000
 Stoichiometry    C4H10O
 Framework group  C1[X(C4H10O)]
 Deg. of freedom    39
 Full point group                 C1
 Largest Abelian subgroup         C1      NOp   1
 Largest concise Abelian subgroup C1      NOp   1
                         Standard orientation:                         
 ---------------------------------------------------------------------
 Center     Atomic     Atomic              Coordinates (Angstroms)
 Number     Number      Type              X           Y           Z
 ---------------------------------------------------------------------
    1          6             0       -1.731844   -0.743905   -0.052865
    2          1             0       -1.768332   -1.373898   -0.940312
    3          1             0       -1.636690    0.601315   -0.387780
    4          6             0       -0.449392   -0.381164    0.441977
    5          1             0       -0.350803   -0.113975    1.494313
    6          8             0       -0.688773    1.455508   -0.228556
    7          1             0       -0.908701    2.069776    0.497515
    8          6             0        0.828212   -0.753845   -0.249412
    9          1             0        0.647989   -0.782235   -1.330427
   10          1             0        1.037541   -1.793306    0.053674
   11          6             0        2.026497    0.138112    0.076292
   12          1             0        2.227208    0.157734    1.154877
   13          1             0        2.931497   -0.223796   -0.423687
   14          1             0        1.821943    1.160499   -0.252828
   15          1             0       -2.532307   -0.901362    0.667156
 ---------------------------------------------------------------------
 Rotational constants (GHZ):      6.8875911      3.4475865      2.5605295
 Standard basis: CBSB7 (5D, 7F)
 There are   150 symmetry adapted basis functions of A   symmetry.
 Integral buffers will be    131072 words long.
 Raffenetti 2 integral format.
 Two-electron integral symmetry is turned on.
   150 basis functions,   240 primitive gaussians,   155 cartesian basis functions
    21 alpha electrons       21 beta electrons
       nuclear repulsion energy       188.3640816316 Hartrees.
 NAtoms=   15 NActive=   15 NUniq=   15 SFac= 7.50D-01 NAtFMM=   80 NAOKFM=F Big=F
 One-electron integrals computed using PRISM.
 NBasis=   150 RedAO= T  NBF=   150
 NBsUse=   150 1.00D-06 NBFU=   150
 Harris functional with IExCor=  402 diagonalized for initial guess.
 ExpMin= 1.03D-01 ExpMax= 8.59D+03 ExpMxC= 1.30D+03 IAcc=1 IRadAn=         1 AccDes= 1.00D-06
 HarFok:  IExCor= 402 AccDes= 1.00D-06 IRadAn=         1 IDoV=1
 ScaDFX=  1.000000  1.000000  1.000000  1.000000
 Initial guess orbital symmetries:
       Occupied  (A) (A) (A) (A) (A) (A) (A) (A) (A) (A) (A) (A)
                 (A) (A) (A) (A) (A) (A) (A) (A) (A)
       Virtual   (A) (A) (A) (A) (A) (A) (A) (A) (A) (A) (A) (A)
                 (A) (A) (A) (A) (A) (A) (A) (A) (A) (A) (A) (A)
                 (A) (A) (A) (A) (A) (A) (A) (A) (A) (A) (A) (A)
                 (A) (A) (A) (A) (A) (A) (A) (A) (A) (A) (A) (A)
                 (A) (A) (A) (A) (A) (A) (A) (A) (A) (A) (A) (A)
                 (A) (A) (A) (A) (A) (A) (A) (A) (A) (A) (A) (A)
                 (A) (A) (A) (A) (A) (A) (A) (A) (A) (A) (A) (A)
                 (A) (A) (A) (A) (A) (A) (A) (A) (A) (A) (A) (A)
                 (A) (A) (A) (A) (A) (A) (A) (A) (A) (A) (A) (A)
                 (A) (A) (A) (A) (A) (A) (A) (A) (A) (A) (A) (A)
                 (A) (A) (A) (A) (A) (A) (A) (A) (A)
 The electronic state of the initial guess is 1-A.
 Requested convergence on RMS density matrix=1.00D-08 within 128 cycles.
 Requested convergence on MAX density matrix=1.00D-06.
 Requested convergence on             energy=1.00D-06.
 No special actions if energy rises.
 Keep R1 integrals in memory in canonical form, NReq=    76038014.
 Integral accuracy reduced to 1.0D-05 until final iterations.
 Initial convergence to 1.0D-05 achieved.  Increase integral accuracy.
 SCF Done:  E(RB+HF-LYP) =  -233.638724963     A.U. after   15 cycles
             Convg  =    0.6234D-08             -V/T =  2.0044
             S**2   =   0.0000
 Range of M.O.s used for correlation:     1   150
 NBasis=   150 NAE=    21 NBE=    21 NFC=     0 NFV=     0
 NROrb=    150 NOA=    21 NOB=    21 NVA=   129 NVB=   129
 Symmetrizing basis deriv contribution to polar:
 IMax=3 JMax=2 DiffMx= 0.00D+00
 G2DrvN: will do   16 centers at a time, making    1 passes doing MaxLOS=2.
 FoFDir/FoFCou used for L=0 through L=2.
 DoAtom=TTTTTTTTTTTTTTT
          Differentiating once with respect to electric field.
                with respect to dipole field.
          Differentiating once with respect to nuclear coordinates.
          Store integrals in memory, NReq=    73914613.
          There are  48 degrees of freedom in the 1st order CPHF.
    45 vectors were produced by pass  0.
 AX will form  45 AO Fock derivatives at one time.
    45 vectors were produced by pass  1.
    45 vectors were produced by pass  2.
    45 vectors were produced by pass  3.
    14 vectors were produced by pass  4.
     3 vectors were produced by pass  5.
 Inv2:  IOpt= 1 Iter= 1 AM= 1.77D-15 Conv= 1.00D-12.
 Inverted reduced A of dimension  197 with in-core refinement.
 Isotropic polarizability for W=    0.000000       57.93 Bohr**3.
 End of Minotr Frequency-dependent properties file   721 does not exist.

 **********************************************************************

            Population analysis using the SCF density.

 **********************************************************************

 Orbital symmetries:
       Occupied  (A) (A) (A) (A) (A) (A) (A) (A) (A) (A) (A) (A)
                 (A) (A) (A) (A) (A) (A) (A) (A) (A)
       Virtual   (A) (A) (A) (A) (A) (A) (A) (A) (A) (A) (A) (A)
                 (A) (A) (A) (A) (A) (A) (A) (A) (A) (A) (A) (A)
                 (A) (A) (A) (A) (A) (A) (A) (A) (A) (A) (A) (A)
                 (A) (A) (A) (A) (A) (A) (A) (A) (A) (A) (A) (A)
                 (A) (A) (A) (A) (A) (A) (A) (A) (A) (A) (A) (A)
                 (A) (A) (A) (A) (A) (A) (A) (A) (A) (A) (A) (A)
                 (A) (A) (A) (A) (A) (A) (A) (A) (A) (A) (A) (A)
                 (A) (A) (A) (A) (A) (A) (A) (A) (A) (A) (A) (A)
                 (A) (A) (A) (A) (A) (A) (A) (A) (A) (A) (A) (A)
                 (A) (A) (A) (A) (A) (A) (A) (A) (A) (A) (A) (A)
                 (A) (A) (A) (A) (A) (A) (A) (A) (A)
 The electronic state is 1-A.
 Alpha  occ. eigenvalues --  -19.08794 -10.23939 -10.18237 -10.16075 -10.14074
 Alpha  occ. eigenvalues --   -0.95483  -0.81067  -0.73734  -0.63616  -0.57272
 Alpha  occ. eigenvalues --   -0.50179  -0.45785  -0.44183  -0.43705  -0.38502
 Alpha  occ. eigenvalues --   -0.37603  -0.35531  -0.35173  -0.34309  -0.30595
 Alpha  occ. eigenvalues --   -0.21761
 Alpha virt. eigenvalues --   -0.02234   0.03608   0.06287   0.07037   0.08221
 Alpha virt. eigenvalues --    0.10407   0.11985   0.12361   0.13365   0.15509
 Alpha virt. eigenvalues --    0.18197   0.20202   0.23660   0.24174   0.29218
 Alpha virt. eigenvalues --    0.30636   0.31312   0.31928   0.35103   0.39164
 Alpha virt. eigenvalues --    0.42163   0.44355   0.46735   0.51781   0.54051
 Alpha virt. eigenvalues --    0.55043   0.55504   0.56327   0.57626   0.59032
 Alpha virt. eigenvalues --    0.59731   0.60654   0.61039   0.62260   0.63381
 Alpha virt. eigenvalues --    0.67761   0.73233   0.82483   0.84899   0.88255
 Alpha virt. eigenvalues --    0.92348   0.94349   1.00851   1.02849   1.10327
 Alpha virt. eigenvalues --    1.13078   1.20126   1.23787   1.30314   1.32191
 Alpha virt. eigenvalues --    1.33786   1.38894   1.41630   1.44036   1.45300
 Alpha virt. eigenvalues --    1.46861   1.47828   1.49177   1.53101   1.55549
 Alpha virt. eigenvalues --    1.57120   1.58972   1.61367   1.62798   1.69393
 Alpha virt. eigenvalues --    1.71963   1.73680   1.75329   1.77689   1.80627
 Alpha virt. eigenvalues --    1.83354   1.87400   1.89911   1.94183   1.96880
 Alpha virt. eigenvalues --    2.03479   2.04164   2.04340   2.06862   2.11786
 Alpha virt. eigenvalues --    2.13836   2.19588   2.23083   2.24543   2.30247
 Alpha virt. eigenvalues --    2.33953   2.38493   2.41630   2.44101   2.46031
 Alpha virt. eigenvalues --    2.48266   2.50643   2.53345   2.55768   2.55919
 Alpha virt. eigenvalues --    2.60103   2.62898   2.64759   2.69084   2.71943
 Alpha virt. eigenvalues --    2.77770   2.79689   2.82576   2.90960   2.93831
 Alpha virt. eigenvalues --    2.99591   3.07523   3.13424   3.17670   3.26976
 Alpha virt. eigenvalues --    3.34081   3.60679   3.61054   3.73711   3.78549
 Alpha virt. eigenvalues --    3.79977   3.81601   3.82921   3.99639   4.16889
 Alpha virt. eigenvalues --    4.37835   4.91629   5.06479   5.51430  23.75972
 Alpha virt. eigenvalues --   23.85897  23.93424  23.99206  49.89802
          Condensed to atoms (all electrons):
              1          2          3          4          5          6
     1  C    5.197631   0.413609   0.192081   0.440759  -0.032065  -0.182080
     2  H    0.413609   0.546878  -0.003381  -0.045394   0.006193   0.003495
     3  H    0.192081  -0.003381   0.475081  -0.059332   0.007860   0.134936
     4  C    0.440759  -0.045394  -0.059332   5.055578   0.387553   0.079592
     5  H   -0.032065   0.006193   0.007860   0.387553   0.559996  -0.015475
     6  O   -0.182080   0.003495   0.134936   0.079592  -0.015475   8.259133
     7  H    0.025798  -0.000313  -0.014938  -0.000623   0.000203   0.251989
     8  C   -0.056492  -0.005294   0.007027   0.331885  -0.035618  -0.023718
     9  H   -0.002482   0.003543   0.002108  -0.037665   0.007287  -0.000743
    10  H   -0.002133   0.000331  -0.000794  -0.035154  -0.001141   0.002840
    11  C    0.004486   0.000467  -0.001824  -0.058665  -0.006279  -0.007000
    12  H    0.000206   0.000018  -0.000030  -0.005812   0.004695  -0.000572
    13  H   -0.000310  -0.000032  -0.000028   0.008029  -0.000201   0.000093
    14  H    0.001312  -0.000110  -0.000591  -0.001916   0.000356   0.021851
    15  H    0.403632  -0.032319  -0.007094  -0.033540  -0.010306   0.004650
              7          8          9         10         11         12
     1  C    0.025798  -0.056492  -0.002482  -0.002133   0.004486   0.000206
     2  H   -0.000313  -0.005294   0.003543   0.000331   0.000467   0.000018
     3  H   -0.014938   0.007027   0.002108  -0.000794  -0.001824  -0.000030
     4  C   -0.000623   0.331885  -0.037665  -0.035154  -0.058665  -0.005812
     5  H    0.000203  -0.035618   0.007287  -0.001141  -0.006279   0.004695
     6  O    0.251989  -0.023718  -0.000743   0.002840  -0.007000  -0.000572
     7  H    0.512938   0.000171  -0.000248  -0.000270   0.000354   0.000046
     8  C    0.000171   4.901321   0.407344   0.386038   0.355503  -0.036538
     9  H   -0.000248   0.407344   0.566161  -0.030380  -0.035679   0.008074
    10  H   -0.000270   0.386038  -0.030380   0.590817  -0.032345  -0.006307
    11  C    0.000354   0.355503  -0.035679  -0.032345   4.892864   0.400683
    12  H    0.000046  -0.036538   0.008074  -0.006307   0.400683   0.601841
    13  H    0.000075  -0.030753  -0.005042  -0.004985   0.396896  -0.031298
    14  H   -0.000448  -0.039291  -0.005984   0.009030   0.391222  -0.029290
    15  H   -0.001177   0.006054  -0.000058  -0.000439  -0.000235   0.000012
             13         14         15
     1  C   -0.000310   0.001312   0.403632
     2  H   -0.000032  -0.000110  -0.032319
     3  H   -0.000028  -0.000591  -0.007094
     4  C    0.008029  -0.001916  -0.033540
     5  H   -0.000201   0.000356  -0.010306
     6  O    0.000093   0.021851   0.004650
     7  H    0.000075  -0.000448  -0.001177
     8  C   -0.030753  -0.039291   0.006054
     9  H   -0.005042  -0.005984  -0.000058
    10  H   -0.004985   0.009030  -0.000439
    11  C    0.396896   0.391222  -0.000235
    12  H   -0.031298  -0.029290   0.000012
    13  H    0.585431  -0.023215   0.000019
    14  H   -0.023215   0.547015  -0.000075
    15  H    0.000019  -0.000075   0.557536
 Mulliken atomic charges:
              1
     1  C   -0.403953
     2  H    0.112307
     3  H    0.268917
     4  C   -0.025295
     5  H    0.126941
     6  O   -0.528993
     7  H    0.226441
     8  C   -0.167641
     9  H    0.123764
    10  H    0.124892
    11  C   -0.300447
    12  H    0.094273
    13  H    0.105319
    14  H    0.130133
    15  H    0.113339
 Sum of Mulliken charges=   0.00000
 Atomic charges with hydrogens summed into heavy atoms:
              1
     1  C   -0.178306
     2  H    0.000000
     3  H    0.000000
     4  C    0.101646
     5  H    0.000000
     6  O   -0.033634
     7  H    0.000000
     8  C    0.081015
     9  H    0.000000
    10  H    0.000000
    11  C    0.029279
    12  H    0.000000
    13  H    0.000000
    14  H    0.000000
    15  H    0.000000
 Sum of Mulliken charges=   0.00000
 APT atomic charges:
              1
     1  C   -0.407749
     2  H    0.022983
     3  H    0.338404
     4  C    0.596635
     5  H   -0.034705
     6  O   -0.731370
     7  H    0.181518
     8  C    0.021675
     9  H   -0.013937
    10  H   -0.026527
    11  C    0.071458
    12  H   -0.027450
    13  H   -0.027311
    14  H    0.019159
    15  H    0.017217
 Sum of APT charges=   0.00000
 APT Atomic charges with hydrogens summed into heavy atoms:
              1
     1  C   -0.367549
     2  H    0.000000
     3  H    0.000000
     4  C    0.561930
     5  H    0.000000
     6  O   -0.211449
     7  H    0.000000
     8  C   -0.018789
     9  H    0.000000
    10  H    0.000000
    11  C    0.035857
    12  H    0.000000
    13  H    0.000000
    14  H    0.000000
    15  H    0.000000
 Sum of APT charges=   0.00000
 Electronic spatial extent (au):  <R**2>=   538.8830
 Charge=     0.0000 electrons
 Dipole moment (field-independent basis, Debye):
    X=     0.4690    Y=    -0.7678    Z=     1.6320  Tot=     1.8636
 Quadrupole moment (field-independent basis, Debye-Ang):
   XX=   -34.2370   YY=   -34.1870   ZZ=   -32.4890
   XY=    -1.4388   XZ=    -1.6459   YZ=     3.1652
 Traceless Quadrupole moment (field-independent basis, Debye-Ang):
   XX=    -0.5994   YY=    -0.5493   ZZ=     1.1487
   XY=    -1.4388   XZ=    -1.6459   YZ=     3.1652
 Octapole moment (field-independent basis, Debye-Ang**2):
  XXX=    -0.2414  YYY=    10.7341  ZZZ=     1.4738  XYY=    -1.4263
  XXY=     2.8383  XXZ=     1.2745  XZZ=    -1.0241  YZZ=     1.6722
  YYZ=     4.6068  XYZ=    -2.5997
 Hexadecapole moment (field-independent basis, Debye-Ang**3):
 XXXX=  -459.1796 YYYY=  -191.0052 ZZZZ=   -73.1044 XXXY=    -8.4516
 XXXZ=    -9.0327 YYYX=   -15.6982 YYYZ=    11.7795 ZZZX=    -0.9351
 ZZZY=     2.4721 XXYY=  -107.1796 XXZZ=   -87.0634 YYZZ=   -45.8846
 XXYZ=     2.2100 YYXZ=    -3.2355 ZZXY=    -1.6448
 N-N= 1.883640816316D+02 E-N=-9.214381476479D+02  KE= 2.326086099682D+02
  Exact polarizability:  65.119   2.668  61.262   1.322   2.275  47.398
 Approx polarizability:  81.895   3.511  94.721   3.883  -0.175  70.196
 ***** Axes restored to original set *****
 -------------------------------------------------------------------
 Center     Atomic                   Forces (Hartrees/Bohr)
 Number     Number              X              Y              Z
 -------------------------------------------------------------------
    1          6          -0.003305786    0.000834015    0.000923731
    2          1           0.000149448   -0.000098312   -0.001697018
    3          1           0.002186923    0.004058948   -0.001972347
    4          6          -0.001976938   -0.001020441    0.001694167
    5          1           0.000704533   -0.000405735    0.001598487
    6          8           0.000468711   -0.005357834   -0.006887849
    7          1           0.000475506    0.002335583    0.006840346
    8          6          -0.000010868   -0.000677290    0.000362576
    9          1          -0.000868524    0.000249118   -0.001218882
   10          1           0.001221659   -0.000655860   -0.000527577
   11          6           0.000445330    0.000962988   -0.000588026
   12          1           0.000829529   -0.000309733    0.001384605
   13          1           0.000001125   -0.001370265   -0.000900608
   14          1          -0.001550787    0.000200884    0.000527649
   15          1           0.001230138    0.001253934    0.000460745
 -------------------------------------------------------------------
 Cartesian Forces:  Max     0.006887849 RMS     0.002099677

 GradGradGradGradGradGradGradGradGradGradGradGradGradGradGradGradGradGrad
 Berny optimization.
 Internal  Forces:  Max     0.007164236 RMS     0.001589420
 Search for a saddle point.
 Step number   1 out of a maximum of  72
 All quantities printed in internal units (Hartrees-Bohrs-Radians)
 Swaping is turned off.
 Second derivative matrix not updated -- analytic derivatives used.
     Eigenvalues ---   -0.28611   0.00270   0.00491   0.00602   0.01596
     Eigenvalues ---    0.02016   0.02500   0.03725   0.03808   0.04158
     Eigenvalues ---    0.04517   0.04681   0.05504   0.06399   0.07250
     Eigenvalues ---    0.07765   0.08115   0.10267   0.11772   0.12244
     Eigenvalues ---    0.14022   0.15595   0.15945   0.17132   0.20103
     Eigenvalues ---    0.21810   0.24888   0.29102   0.30870   0.31803
     Eigenvalues ---    0.32563   0.33123   0.33404   0.34003   0.34258
     Eigenvalues ---    0.34503   0.34845   0.48240   0.589611000.00000
     Eigenvalues --- 1000.000001000.000001000.000001000.000001000.00000
     Eigenvalues --- 1000.000001000.000001000.000001000.000001000.00000
     Eigenvalues --- 1000.000001000.000001000.000001000.000001000.00000
     Eigenvalues --- 1000.000001000.000001000.000001000.000001000.00000
     Eigenvalues --- 1000.000001000.00000
 Eigenvectors required to have negative eigenvalues:
                          R1        R2        R3        R4        R5
         1              0.00142   0.57004  -0.29282  -0.00033  -0.45143
                          R6        R7        R8        R9        R10
         1             -0.00423  -0.03109  -0.00734   0.00041  -0.00123
                          R11       R12       R13       R14       A1
         1              0.00246  -0.00096  -0.00062   0.00372  -0.09321
                          A2        A3        A4        A5        A6
         1              0.00655   0.01577   0.15484  -0.07681   0.00051
                          A7        A8        A9        A10       A11
         1              0.52982  -0.02425   0.06524  -0.00422  -0.05567
                          A12       A13       A14       A15       A16
         1              0.01532  -0.00949  -0.01155   0.00108  -0.00709
                          A17       A18       A19       A20       A21
         1              0.01271  -0.00027   0.00344  -0.00495   0.00033
                          A22       A23       D1        D2        D3
         1              0.00100   0.00052  -0.05860   0.00584   0.05946
                          D4        D5        D6        D7        D8
         1             -0.07804   0.04362  -0.04539   0.07627  -0.03354
                          D9        D10       D11       D12       D13
         1              0.08812  -0.06120  -0.06746  -0.07097  -0.07306
                          D14       D15       D16       D17       D18
         1              0.04620   0.04270   0.04060  -0.00693  -0.00438
                          D19       D20       D21       D22       D23
         1             -0.00478  -0.00100   0.00155   0.00115   0.00382
                          D24       D25
         1              0.00636   0.00597
 RFO step:  Lambda0=2.149102095D-04 Lambda=-4.20370490D-04.
 Linear search not attempted -- option 19 set.
 Iteration  1 RMS(Cart)=  0.01537302 RMS(Int)=  0.00042318
 Iteration  2 RMS(Cart)=  0.00040535 RMS(Int)=  0.00000373
 Iteration  3 RMS(Cart)=  0.00000021 RMS(Int)=  0.00000372
 Variable       Old X    -DE/DX   Delta X   Delta X   Delta X     New X
                                 (Linear)    (Quad)   (Total)
    R1        2.05779  -0.00170   0.00000  -0.00519  -0.00519   2.05260
    R2        2.62586   0.00365   0.00000  -0.03355  -0.03355   2.59231
    R3        2.68656  -0.00383   0.00000  -0.00080  -0.00080   2.68576
    R4        2.05621  -0.00177   0.00000  -0.00502  -0.00502   2.05119
    R5        2.43000  -0.00158   0.00000   0.02264   0.02264   2.45264
    R6        2.06017  -0.00177   0.00000  -0.00526  -0.00526   2.05490
    R7        2.83407  -0.00184   0.00000  -0.00623  -0.00623   2.82785
    R8        1.84466  -0.00716   0.00000  -0.01484  -0.01484   1.82982
    R9        2.07171  -0.00151   0.00000  -0.00449  -0.00449   2.06722
   R10        2.08398  -0.00145   0.00000  -0.00402  -0.00402   2.07996
   R11        2.88922  -0.00072   0.00000  -0.00217  -0.00217   2.88705
   R12        2.07355  -0.00164   0.00000  -0.00499  -0.00499   2.06857
   R13        2.07007  -0.00164   0.00000  -0.00495  -0.00495   2.06512
   R14        2.06615  -0.00164   0.00000  -0.00479  -0.00479   2.06136
    A1        1.94545  -0.00064   0.00000   0.00508   0.00508   1.95053
    A2        2.05049  -0.00034   0.00000   0.00260   0.00260   2.05309
    A3        2.01630   0.00026   0.00000   0.00230   0.00231   2.01861
    A4        1.34396   0.00203   0.00000  -0.00178  -0.00179   1.34217
    A5        1.92832  -0.00083   0.00000  -0.00762  -0.00762   1.92070
    A6        2.06032  -0.00017   0.00000  -0.00268  -0.00269   2.05763
    A7        2.29658   0.00623   0.00000   0.00820   0.00820   2.30478
    A8        2.07156  -0.00030   0.00000  -0.00312  -0.00313   2.06844
    A9        2.14671   0.00014   0.00000  -0.00086  -0.00087   2.14584
   A10        2.01403   0.00020   0.00000   0.00268   0.00268   2.01671
   A11        1.92200   0.00164   0.00000   0.05897   0.05897   1.98097
   A12        1.89755   0.00000   0.00000  -0.00016  -0.00016   1.89739
   A13        1.84339  -0.00021   0.00000  -0.00265  -0.00265   1.84074
   A14        2.00919   0.00000   0.00000   0.00048   0.00048   2.00968
   A15        1.85230  -0.00002   0.00000  -0.00026  -0.00026   1.85204
   A16        1.93265  -0.00002   0.00000  -0.00008  -0.00008   1.93257
   A17        1.92045   0.00024   0.00000   0.00250   0.00250   1.92295
   A18        1.94249  -0.00004   0.00000   0.00010   0.00010   1.94259
   A19        1.93642   0.00015   0.00000   0.00112   0.00112   1.93754
   A20        1.91216  -0.00033   0.00000  -0.00431  -0.00431   1.90785
   A21        1.87909  -0.00001   0.00000   0.00088   0.00088   1.87997
   A22        1.88956   0.00015   0.00000   0.00160   0.00160   1.89116
   A23        1.90298   0.00009   0.00000   0.00074   0.00074   1.90371
    D1       -1.96450  -0.00073   0.00000   0.00318   0.00317  -1.96133
    D2        0.03774  -0.00039   0.00000   0.00503   0.00502   0.04276
    D3        2.05184   0.00011   0.00000   0.00221   0.00222   2.05406
    D4       -2.71953   0.00014   0.00000   0.00240   0.00240  -2.71713
    D5        0.06896   0.00032   0.00000  -0.00146  -0.00145   0.06751
    D6        1.68472  -0.00013   0.00000  -0.00229  -0.00229   1.68243
    D7       -1.80997   0.00006   0.00000  -0.00615  -0.00615  -1.81612
    D8       -0.17402  -0.00019   0.00000   0.00701   0.00700  -0.16702
    D9        2.61447   0.00000   0.00000   0.00315   0.00315   2.61762
   D10       -1.83906  -0.00100   0.00000  -0.02712  -0.02712  -1.86618
   D11        0.56016  -0.00010   0.00000   0.00077   0.00077   0.56093
   D12       -1.42139   0.00002   0.00000   0.00244   0.00244  -1.41895
   D13        2.73955  -0.00013   0.00000   0.00089   0.00089   2.74044
   D14       -2.92388  -0.00002   0.00000  -0.00403  -0.00404  -2.92792
   D15        1.37775   0.00011   0.00000  -0.00236  -0.00237   1.37538
   D16       -0.74449  -0.00004   0.00000  -0.00391  -0.00392  -0.74841
   D17        0.99979  -0.00003   0.00000   0.01004   0.01004   1.00983
   D18        3.09183   0.00004   0.00000   0.01197   0.01197   3.10380
   D19       -1.08935   0.00002   0.00000   0.01079   0.01079  -1.07856
   D20       -3.12243  -0.00005   0.00000   0.01013   0.01013  -3.11230
   D21       -1.03039   0.00002   0.00000   0.01206   0.01206  -1.01833
   D22        1.07162   0.00001   0.00000   0.01088   0.01088   1.08250
   D23       -1.08017   0.00007   0.00000   0.01129   0.01129  -1.06888
   D24        1.01187   0.00014   0.00000   0.01322   0.01322   1.02509
   D25        3.11387   0.00012   0.00000   0.01204   0.01204   3.12592
         Item               Value     Threshold  Converged?
 Maximum Force            0.007164     0.000450     NO 
 RMS     Force            0.001589     0.000300     NO 
 Maximum Displacement     0.068447     0.001800     NO 
 RMS     Displacement     0.015277     0.001200     NO 
 Predicted change in Energy=-1.041524D-04
 GradGradGradGradGradGradGradGradGradGradGradGradGradGradGradGradGradGrad

                          Input orientation:                          
 ---------------------------------------------------------------------
 Center     Atomic     Atomic              Coordinates (Angstroms)
 Number     Number      Type              X           Y           Z
 ---------------------------------------------------------------------
    1          6             0       -0.002406    0.001674    0.005027
    2          1             0       -0.001026    0.001479    1.091216
    3          1             0        1.271012   -0.002351   -0.505076
    4          6             0        0.084545    1.257851   -0.654051
    5          1             0       -0.305390    1.341345   -1.665699
    6          8             0        1.944493    0.886729   -1.168746
    7          1             0        2.053873    0.668146   -2.105686
    8          6             0        0.260769    2.550790    0.078452
    9          1             0        0.852439    2.365710    0.979752
   10          1             0       -0.745417    2.830907    0.425719
   11          6             0        0.869125    3.685316   -0.744228
   12          1             0        0.267700    3.898340   -1.633689
   13          1             0        0.931943    4.604957   -0.157233
   14          1             0        1.871026    3.399528   -1.067376
   15          1             0       -0.593741   -0.778194   -0.464353
 ---------------------------------------------------------------------
                    Distance matrix (angstroms):
                    1          2          3          4          5
     1  C    0.000000
     2  H    1.086190   0.000000
     3  H    1.371792   2.041138   0.000000
     4  C    1.421241   2.152151   1.737241   0.000000
     5  H    2.162833   3.080335   2.374365   1.087407   0.000000
     6  O    2.439566   3.110650   1.297882   1.965209   2.348534
     7  H    3.021188   3.858399   1.903783   2.516595   2.492570
     8  C    2.563717   2.755579   2.807067   1.496431   2.196670
     9  H    2.696204   2.516032   2.826240   2.118094   3.064034
    10  H    2.955268   3.000445   3.599961   2.080684   2.605081
    11  C    3.858779   4.206742   3.717203   2.552701   2.778992
    12  H    4.235841   4.762652   4.182797   2.822307   2.620626
    13  H    4.699952   4.860151   4.632844   3.488270   3.802319
    14  H    4.025569   4.439689   3.499854   2.819420   3.054651
    15  H    1.085444   1.838205   2.020123   2.154423   2.453329
                    6          7          8          9         10
     6  O    0.000000
     7  H    0.968297   0.000000
     8  C    2.675730   3.395590   0.000000
     9  H    2.827722   3.720900   1.093923   0.000000
    10  H    3.682087   4.349893   1.100668   1.753997   0.000000
    11  C    3.027990   3.515752   1.527760   2.171116   2.169225
    12  H    3.478161   3.721202   2.178845   3.085603   2.531202
    13  H    3.984173   4.533617   2.173849   2.512624   2.510104
    14  H    2.515916   2.927793   2.150862   2.509389   3.065687
    15  H    3.116211   3.434491   3.479506   3.749801   3.720328
                   11         12         13         14         15
    11  C    0.000000
    12  H    1.094638   0.000000
    13  H    1.092816   1.766480   0.000000
    14  H    1.090827   1.772054   1.778566   0.000000
    15  H    4.705447   4.896876   5.603601   4.887952   0.000000
 Stoichiometry    C4H10O
 Framework group  C1[X(C4H10O)]
 Deg. of freedom    39
 Full point group                 C1
 Largest Abelian subgroup         C1      NOp   1
 Largest concise Abelian subgroup C1      NOp   1
                         Standard orientation:                         
 ---------------------------------------------------------------------
 Center     Atomic     Atomic              Coordinates (Angstroms)
 Number     Number      Type              X           Y           Z
 ---------------------------------------------------------------------
    1          6             0       -1.732852   -0.740279   -0.053158
    2          1             0       -1.772880   -1.370142   -0.937171
    3          1             0       -1.637176    0.588668   -0.379594
    4          6             0       -0.450314   -0.378711    0.441102
    5          1             0       -0.354649   -0.113227    1.491255
    6          8             0       -0.683297    1.455212   -0.225604
    7          1             0       -0.859901    2.104149    0.471024
    8          6             0        0.823414   -0.755865   -0.247867
    9          1             0        0.643314   -0.786281   -1.326434
   10          1             0        1.026056   -1.793755    0.057404
   11          6             0        2.023782    0.132320    0.075074
   12          1             0        2.230694    0.145909    1.149893
   13          1             0        2.923359   -0.224960   -0.432233
   14          1             0        1.814325    1.153140   -0.247354
   15          1             0       -2.530949   -0.889990    0.667131
 ---------------------------------------------------------------------
 Rotational constants (GHZ):      6.8973483      3.4608315      2.5665011
 Standard basis: CBSB7 (5D, 7F)
 There are   150 symmetry adapted basis functions of A   symmetry.
 Integral buffers will be    131072 words long.
 Raffenetti 2 integral format.
 Two-electron integral symmetry is turned on.
   150 basis functions,   240 primitive gaussians,   155 cartesian basis functions
    21 alpha electrons       21 beta electrons
       nuclear repulsion energy       188.6632974657 Hartrees.
 NAtoms=   15 NActive=   15 NUniq=   15 SFac= 7.50D-01 NAtFMM=   80 NAOKFM=F Big=F
 One-electron integrals computed using PRISM.
 NBasis=   150 RedAO= T  NBF=   150
 NBsUse=   150 1.00D-06 NBFU=   150
 Initial guess read from the read-write file:
 Initial guess orbital symmetries:
       Occupied  (A) (A) (A) (A) (A) (A) (A) (A) (A) (A) (A) (A)
                 (A) (A) (A) (A) (A) (A) (A) (A) (A)
       Virtual   (A) (A) (A) (A) (A) (A) (A) (A) (A) (A) (A) (A)
                 (A) (A) (A) (A) (A) (A) (A) (A) (A) (A) (A) (A)
                 (A) (A) (A) (A) (A) (A) (A) (A) (A) (A) (A) (A)
                 (A) (A) (A) (A) (A) (A) (A) (A) (A) (A) (A) (A)
                 (A) (A) (A) (A) (A) (A) (A) (A) (A) (A) (A) (A)
                 (A) (A) (A) (A) (A) (A) (A) (A) (A) (A) (A) (A)
                 (A) (A) (A) (A) (A) (A) (A) (A) (A) (A) (A) (A)
                 (A) (A) (A) (A) (A) (A) (A) (A) (A) (A) (A) (A)
                 (A) (A) (A) (A) (A) (A) (A) (A) (A) (A) (A) (A)
                 (A) (A) (A) (A) (A) (A) (A) (A) (A) (A) (A) (A)
                 (A) (A) (A) (A) (A) (A) (A) (A) (A)
 Harris functional with IExCor=  402 diagonalized for initial guess.
 ExpMin= 1.03D-01 ExpMax= 8.59D+03 ExpMxC= 1.30D+03 IAcc=1 IRadAn=         1 AccDes= 1.00D-06
 HarFok:  IExCor= 402 AccDes= 1.00D-06 IRadAn=         1 IDoV=1
 ScaDFX=  1.000000  1.000000  1.000000  1.000000
 Requested convergence on RMS density matrix=1.00D-08 within 128 cycles.
 Requested convergence on MAX density matrix=1.00D-06.
 Requested convergence on             energy=1.00D-06.
 No special actions if energy rises.
 Keep R1 integrals in memory in canonical form, NReq=    76038014.
 Integral accuracy reduced to 1.0D-05 until final iterations.
 Initial convergence to 1.0D-05 achieved.  Increase integral accuracy.
 SCF Done:  E(RB+HF-LYP) =  -233.638830185     A.U. after   12 cycles
             Convg  =    0.7110D-08             -V/T =  2.0042
             S**2   =   0.0000
 ***** Axes restored to original set *****
 -------------------------------------------------------------------
 Center     Atomic                   Forces (Hartrees/Bohr)
 Number     Number              X              Y              Z
 -------------------------------------------------------------------
    1          6          -0.000035917    0.000060183   -0.000050523
    2          1           0.000022815   -0.000001607    0.000013323
    3          1           0.000136059    0.000027782    0.000103992
    4          6          -0.000085688    0.000002115    0.000010618
    5          1          -0.000004686   -0.000000375   -0.000005613
    6          8          -0.000107612   -0.000172216    0.000163141
    7          1           0.000089391    0.000067783   -0.000224676
    8          6           0.000006317    0.000017613    0.000003544
    9          1          -0.000000466    0.000002175    0.000008149
   10          1          -0.000010164    0.000000274   -0.000007449
   11          6          -0.000007423   -0.000005382    0.000003230
   12          1          -0.000007277    0.000004893   -0.000006991
   13          1           0.000009250    0.000006398    0.000003234
   14          1           0.000002273   -0.000001351   -0.000008442
   15          1          -0.000006872   -0.000008285   -0.000005538
 -------------------------------------------------------------------
 Cartesian Forces:  Max     0.000224676 RMS     0.000062870

 GradGradGradGradGradGradGradGradGradGradGradGradGradGradGradGradGradGrad
 Berny optimization.
 Internal  Forces:  Max     0.000246346 RMS     0.000054518
 Search for a saddle point.
 Step number   2 out of a maximum of  72
 All quantities printed in internal units (Hartrees-Bohrs-Radians)
 Swaping is turned off.
 Update second derivatives using D2CorX and points  1  2
     Eigenvalues ---   -0.28531   0.00275   0.00489   0.00591   0.01588
     Eigenvalues ---    0.01960   0.02502   0.03557   0.03804   0.04158
     Eigenvalues ---    0.04518   0.04681   0.05496   0.06363   0.07272
     Eigenvalues ---    0.07782   0.08143   0.10267   0.11770   0.12244
     Eigenvalues ---    0.14021   0.15591   0.15945   0.17134   0.20111
     Eigenvalues ---    0.21810   0.24861   0.29102   0.30870   0.31803
     Eigenvalues ---    0.32563   0.33123   0.33407   0.34006   0.34259
     Eigenvalues ---    0.34503   0.34847   0.48311   0.589531000.00000
     Eigenvalues --- 1000.000001000.000001000.000001000.000001000.00000
     Eigenvalues --- 1000.000001000.000001000.000001000.000001000.00000
     Eigenvalues --- 1000.000001000.000001000.000001000.000001000.00000
     Eigenvalues --- 1000.000001000.000001000.000001000.000001000.00000
     Eigenvalues --- 1000.000001000.00000
 Eigenvectors required to have negative eigenvalues:
                          R1        R2        R3        R4        R5
         1              0.00120   0.56887  -0.29314  -0.00053  -0.45097
                          R6        R7        R8        R9        R10
         1             -0.00442  -0.03144  -0.00856   0.00025  -0.00137
                          R11       R12       R13       R14       A1
         1              0.00239  -0.00115  -0.00080   0.00356  -0.09275
                          A2        A3        A4        A5        A6
         1              0.00669   0.01572   0.15401  -0.07705   0.00071
                          A7        A8        A9        A10       A11
         1              0.53130  -0.02434   0.06556  -0.00391  -0.05492
                          A12       A13       A14       A15       A16
         1              0.01539  -0.00964  -0.01157   0.00107  -0.00713
                          A17       A18       A19       A20       A21
         1              0.01286  -0.00027   0.00348  -0.00519   0.00038
                          A22       A23       D1        D2        D3
         1              0.00108   0.00059  -0.05830   0.00672   0.05928
                          D4        D5        D6        D7        D8
         1             -0.07810   0.04346  -0.04582   0.07574  -0.03284
                          D9        D10       D11       D12       D13
         1              0.08872  -0.06287  -0.06770  -0.07111  -0.07330
                          D14       D15       D16       D17       D18
         1              0.04616   0.04275   0.04056  -0.00639  -0.00375
                          D19       D20       D21       D22       D23
         1             -0.00420  -0.00041   0.00223   0.00178   0.00446
                          D24       D25
         1              0.00710   0.00665
 RFO step:  Lambda0=5.266664102D-08 Lambda=-2.55621599D-06.
 Linear search not attempted -- option 19 set.
 Iteration  1 RMS(Cart)=  0.00223981 RMS(Int)=  0.00001026
 Iteration  2 RMS(Cart)=  0.00001008 RMS(Int)=  0.00000006
 Iteration  3 RMS(Cart)=  0.00000000 RMS(Int)=  0.00000006
 Variable       Old X    -DE/DX   Delta X   Delta X   Delta X     New X
                                 (Linear)    (Quad)   (Total)
    R1        2.05260   0.00001   0.00000   0.00006   0.00006   2.05266
    R2        2.59231   0.00009   0.00000  -0.00029  -0.00029   2.59202
    R3        2.68576   0.00001   0.00000  -0.00008  -0.00008   2.68567
    R4        2.05119   0.00001   0.00000   0.00006   0.00006   2.05125
    R5        2.45264  -0.00005   0.00000  -0.00015  -0.00015   2.45249
    R6        2.05490   0.00001   0.00000   0.00000   0.00000   2.05490
    R7        2.82785   0.00002   0.00000   0.00006   0.00006   2.82790
    R8        1.82982   0.00021   0.00000   0.00053   0.00053   1.83034
    R9        2.06722   0.00001   0.00000   0.00000   0.00000   2.06722
   R10        2.07996   0.00001   0.00000   0.00004   0.00004   2.08000
   R11        2.88705   0.00000   0.00000  -0.00001  -0.00001   2.88704
   R12        2.06857   0.00001   0.00000   0.00002   0.00002   2.06859
   R13        2.06512   0.00001   0.00000   0.00003   0.00003   2.06515
   R14        2.06136   0.00000   0.00000   0.00004   0.00004   2.06140
    A1        1.95053  -0.00008   0.00000  -0.00022  -0.00022   1.95031
    A2        2.05309  -0.00003   0.00000  -0.00003  -0.00003   2.05306
    A3        2.01861   0.00002   0.00000  -0.00001  -0.00001   2.01860
    A4        1.34217   0.00021   0.00000   0.00125   0.00125   1.34342
    A5        1.92070  -0.00005   0.00000  -0.00070  -0.00070   1.92000
    A6        2.05763  -0.00003   0.00000  -0.00006  -0.00006   2.05757
    A7        2.30478   0.00004   0.00000  -0.00128  -0.00128   2.30350
    A8        2.06844   0.00000   0.00000  -0.00003  -0.00003   2.06841
    A9        2.14584  -0.00001   0.00000   0.00001   0.00001   2.14585
   A10        2.01671   0.00001   0.00000   0.00015   0.00015   2.01686
   A11        1.98097   0.00025   0.00000   0.00851   0.00851   1.98948
   A12        1.89739  -0.00001   0.00000   0.00000   0.00000   1.89739
   A13        1.84074   0.00000   0.00000  -0.00004  -0.00004   1.84070
   A14        2.00968   0.00001   0.00000   0.00005   0.00005   2.00973
   A15        1.85204   0.00000   0.00000   0.00006   0.00006   1.85210
   A16        1.93257   0.00000   0.00000   0.00001   0.00001   1.93258
   A17        1.92295   0.00000   0.00000  -0.00008  -0.00008   1.92287
   A18        1.94259   0.00000   0.00000   0.00009   0.00009   1.94268
   A19        1.93754   0.00000   0.00000   0.00001   0.00001   1.93755
   A20        1.90785   0.00000   0.00000  -0.00012  -0.00012   1.90772
   A21        1.87997   0.00000   0.00000   0.00003   0.00003   1.88000
   A22        1.89116   0.00000   0.00000   0.00015   0.00015   1.89130
   A23        1.90371   0.00000   0.00000  -0.00015  -0.00015   1.90356
    D1       -1.96133  -0.00005   0.00000   0.00128   0.00128  -1.96005
    D2        0.04276   0.00000   0.00000   0.00168   0.00168   0.04444
    D3        2.05406   0.00004   0.00000   0.00205   0.00205   2.05611
    D4       -2.71713   0.00002   0.00000  -0.00074  -0.00074  -2.71787
    D5        0.06751   0.00002   0.00000  -0.00028  -0.00028   0.06723
    D6        1.68243   0.00002   0.00000  -0.00109  -0.00109   1.68134
    D7       -1.81612   0.00002   0.00000  -0.00063  -0.00063  -1.81674
    D8       -0.16702  -0.00003   0.00000  -0.00091  -0.00091  -0.16793
    D9        2.61762  -0.00003   0.00000  -0.00045  -0.00045   2.61717
   D10       -1.86618   0.00001   0.00000  -0.00457  -0.00457  -1.87076
   D11        0.56093   0.00000   0.00000  -0.00090  -0.00090   0.56004
   D12       -1.41895   0.00000   0.00000  -0.00095  -0.00095  -1.41990
   D13        2.74044   0.00000   0.00000  -0.00084  -0.00084   2.73960
   D14       -2.92792   0.00000   0.00000  -0.00048  -0.00048  -2.92839
   D15        1.37538   0.00000   0.00000  -0.00053  -0.00053   1.37486
   D16       -0.74841   0.00000   0.00000  -0.00043  -0.00043  -0.74883
   D17        1.00983   0.00001   0.00000   0.00239   0.00239   1.01222
   D18        3.10380   0.00001   0.00000   0.00249   0.00249   3.10629
   D19       -1.07856   0.00001   0.00000   0.00223   0.00223  -1.07633
   D20       -3.11230   0.00000   0.00000   0.00244   0.00244  -3.10986
   D21       -1.01833   0.00001   0.00000   0.00254   0.00254  -1.01579
   D22        1.08250   0.00000   0.00000   0.00228   0.00228   1.08477
   D23       -1.06888   0.00000   0.00000   0.00247   0.00247  -1.06641
   D24        1.02509   0.00001   0.00000   0.00257   0.00257   1.02767
   D25        3.12592   0.00000   0.00000   0.00231   0.00231   3.12823
         Item               Value     Threshold  Converged?
 Maximum Force            0.000246     0.000450     YES
 RMS     Force            0.000055     0.000300     YES
 Maximum Displacement     0.010596     0.001800     NO 
 RMS     Displacement     0.002241     0.001200     NO 
 Predicted change in Energy=-1.251775D-06
 GradGradGradGradGradGradGradGradGradGradGradGradGradGradGradGradGradGrad

                          Input orientation:                          
 ---------------------------------------------------------------------
 Center     Atomic     Atomic              Coordinates (Angstroms)
 Number     Number      Type              X           Y           Z
 ---------------------------------------------------------------------
    1          6             0       -0.002719    0.001688    0.005487
    2          1             0       -0.000395    0.001697    1.091705
    3          1             0        1.270219   -0.004221   -0.505382
    4          6             0        0.083705    1.257720   -0.653844
    5          1             0       -0.306478    1.340860   -1.665426
    6          8             0        1.943601    0.885235   -1.168491
    7          1             0        2.059480    0.672867   -2.106367
    8          6             0        0.260266    2.550838    0.078325
    9          1             0        0.851735    2.365817    0.979770
   10          1             0       -0.745921    2.831399    0.425297
   11          6             0        0.869067    3.684976   -0.744554
   12          1             0        0.266571    3.899664   -1.632905
   13          1             0        0.934421    4.604088   -0.156982
   14          1             0        1.870043    3.397765   -1.069368
   15          1             0       -0.594649   -0.778166   -0.463237
 ---------------------------------------------------------------------
                    Distance matrix (angstroms):
                    1          2          3          4          5
     1  C    0.000000
     2  H    1.086220   0.000000
     3  H    1.371639   2.040877   0.000000
     4  C    1.421198   2.152117   1.738491   0.000000
     5  H    2.162777   3.080392   2.375062   1.087407   0.000000
     6  O    2.438656   3.109380   1.297802   1.965407   2.348914
     7  H    3.027057   3.862799   1.909066   2.521024   2.497679
     8  C    2.563715   2.755541   2.808745   1.496462   2.196796
     9  H    2.696001   2.515496   2.828054   2.118123   3.064157
    10  H    2.955648   3.001187   3.601628   2.080695   2.604984
    11  C    3.858651   4.206466   3.718642   2.552762   2.779351
    12  H    4.236869   4.763288   4.185562   2.823449   2.622388
    13  H    4.699651   4.859538   4.633644   3.488377   3.803142
    14  H    4.024411   4.438699   3.500196   2.818414   3.053422
    15  H    1.085475   1.838251   2.019529   2.154374   2.453278
                    6          7          8          9         10
     6  O    0.000000
     7  H    0.968575   0.000000
     8  C    2.676266   3.396590   0.000000
     9  H    2.828308   3.721420   1.093925   0.000000
    10  H    3.682560   4.351880   1.100690   1.754055   0.000000
    11  C    3.028679   3.513462   1.527755   2.171123   2.169178
    12  H    3.480645   3.721680   2.178916   3.085639   2.530321
    13  H    3.983901   4.529940   2.173865   2.511752   2.510981
    14  H    2.515560   2.921698   2.150782   2.510146   3.065626
    15  H    3.115606   3.442350   3.479431   3.749524   3.720395
                   11         12         13         14         15
    11  C    0.000000
    12  H    1.094650   0.000000
    13  H    1.092831   1.766518   0.000000
    14  H    1.090847   1.772174   1.778498   0.000000
    15  H    4.705448   4.898154   5.603616   4.886768   0.000000
 Stoichiometry    C4H10O
 Framework group  C1[X(C4H10O)]
 Deg. of freedom    39
 Full point group                 C1
 Largest Abelian subgroup         C1      NOp   1
 Largest concise Abelian subgroup C1      NOp   1
                         Standard orientation:                         
 ---------------------------------------------------------------------
 Center     Atomic     Atomic              Coordinates (Angstroms)
 Number     Number      Type              X           Y           Z
 ---------------------------------------------------------------------
    1          6             0       -1.732624   -0.740350   -0.053221
    2          1             0       -1.772617   -1.369394   -0.937855
    3          1             0       -1.638786    0.588813   -0.378664
    4          6             0       -0.450128   -0.379203    0.441329
    5          1             0       -0.354603   -0.114037    1.491575
    6          8             0       -0.684456    1.454830   -0.225180
    7          1             0       -0.854223    2.109075    0.468564
    8          6             0        0.823645   -0.755943   -0.247852
    9          1             0        0.643369   -0.786497   -1.326387
   10          1             0        1.026716   -1.793741    0.057526
   11          6             0        2.023799    0.132618    0.074832
   12          1             0        2.232476    0.144455    1.149343
   13          1             0        2.922858   -0.222929   -0.434635
   14          1             0        1.812945    1.153807   -0.245577
   15          1             0       -2.530639   -0.890927    0.667025
 ---------------------------------------------------------------------
 Rotational constants (GHZ):      6.8964567      3.4605477      2.5661753
 Standard basis: CBSB7 (5D, 7F)
 There are   150 symmetry adapted basis functions of A   symmetry.
 Integral buffers will be    131072 words long.
 Raffenetti 2 integral format.
 Two-electron integral symmetry is turned on.
   150 basis functions,   240 primitive gaussians,   155 cartesian basis functions
    21 alpha electrons       21 beta electrons
       nuclear repulsion energy       188.6525791952 Hartrees.
 NAtoms=   15 NActive=   15 NUniq=   15 SFac= 7.50D-01 NAtFMM=   80 NAOKFM=F Big=F
 One-electron integrals computed using PRISM.
 NBasis=   150 RedAO= T  NBF=   150
 NBsUse=   150 1.00D-06 NBFU=   150
 Initial guess read from the read-write file:
 Initial guess orbital symmetries:
       Occupied  (A) (A) (A) (A) (A) (A) (A) (A) (A) (A) (A) (A)
                 (A) (A) (A) (A) (A) (A) (A) (A) (A)
       Virtual   (A) (A) (A) (A) (A) (A) (A) (A) (A) (A) (A) (A)
                 (A) (A) (A) (A) (A) (A) (A) (A) (A) (A) (A) (A)
                 (A) (A) (A) (A) (A) (A) (A) (A) (A) (A) (A) (A)
                 (A) (A) (A) (A) (A) (A) (A) (A) (A) (A) (A) (A)
                 (A) (A) (A) (A) (A) (A) (A) (A) (A) (A) (A) (A)
                 (A) (A) (A) (A) (A) (A) (A) (A) (A) (A) (A) (A)
                 (A) (A) (A) (A) (A) (A) (A) (A) (A) (A) (A) (A)
                 (A) (A) (A) (A) (A) (A) (A) (A) (A) (A) (A) (A)
                 (A) (A) (A) (A) (A) (A) (A) (A) (A) (A) (A) (A)
                 (A) (A) (A) (A) (A) (A) (A) (A) (A) (A) (A) (A)
                 (A) (A) (A) (A) (A) (A) (A) (A) (A)
 Requested convergence on RMS density matrix=1.00D-08 within 128 cycles.
 Requested convergence on MAX density matrix=1.00D-06.
 Requested convergence on             energy=1.00D-06.
 No special actions if energy rises.
 Keep R1 integrals in memory in canonical form, NReq=    76038014.
 SCF Done:  E(RB+HF-LYP) =  -233.638831458     A.U. after    8 cycles
             Convg  =    0.4347D-08             -V/T =  2.0042
             S**2   =   0.0000
 ***** Axes restored to original set *****
 -------------------------------------------------------------------
 Center     Atomic                   Forces (Hartrees/Bohr)
 Number     Number              X              Y              Z
 -------------------------------------------------------------------
    1          6           0.000015998   -0.000005086   -0.000017232
    2          1          -0.000001127    0.000000754    0.000000065
    3          1          -0.000009915   -0.000005872    0.000035766
    4          6           0.000004878    0.000010614    0.000006592
    5          1           0.000005136   -0.000001577   -0.000001040
    6          8          -0.000015478   -0.000010151   -0.000046703
    7          1           0.000011103    0.000009686    0.000031172
    8          6          -0.000006667   -0.000001935   -0.000000576
    9          1          -0.000000432   -0.000000542   -0.000002968
   10          1          -0.000000357    0.000003557    0.000000358
   11          6          -0.000001210   -0.000000843   -0.000002828
   12          1           0.000003263   -0.000004119   -0.000004906
   13          1          -0.000005426    0.000001072   -0.000004985
   14          1           0.000001766    0.000003368    0.000003246
   15          1          -0.000001532    0.000001074    0.000004038
 -------------------------------------------------------------------
 Cartesian Forces:  Max     0.000046703 RMS     0.000011688

 GradGradGradGradGradGradGradGradGradGradGradGradGradGradGradGradGradGrad
 Berny optimization.
 Internal  Forces:  Max     0.000028080 RMS     0.000006754
 Search for a saddle point.
 Step number   3 out of a maximum of  72
 All quantities printed in internal units (Hartrees-Bohrs-Radians)
 Swaping is turned off.
 Update second derivatives using D2CorX and points  1  2  3
     Eigenvalues ---   -0.28563   0.00347   0.00490   0.00622   0.01562
     Eigenvalues ---    0.01934   0.02502   0.03416   0.03804   0.04158
     Eigenvalues ---    0.04518   0.04681   0.05499   0.06360   0.07271
     Eigenvalues ---    0.07783   0.08144   0.10267   0.11771   0.12244
     Eigenvalues ---    0.14021   0.15593   0.15946   0.17139   0.20112
     Eigenvalues ---    0.21810   0.24858   0.29102   0.30870   0.31803
     Eigenvalues ---    0.32563   0.33123   0.33407   0.34006   0.34259
     Eigenvalues ---    0.34503   0.34847   0.48313   0.589541000.00000
     Eigenvalues --- 1000.000001000.000001000.000001000.000001000.00000
     Eigenvalues --- 1000.000001000.000001000.000001000.000001000.00000
     Eigenvalues --- 1000.000001000.000001000.000001000.000001000.00000
     Eigenvalues --- 1000.000001000.000001000.000001000.000001000.00000
     Eigenvalues --- 1000.000001000.00000
 Eigenvectors required to have negative eigenvalues:
                          R1        R2        R3        R4        R5
         1              0.00121   0.56912  -0.29296  -0.00053  -0.45075
                          R6        R7        R8        R9        R10
         1             -0.00439  -0.03139  -0.00838   0.00027  -0.00138
                          R11       R12       R13       R14       A1
         1              0.00238  -0.00113  -0.00079   0.00356  -0.09272
                          A2        A3        A4        A5        A6
         1              0.00680   0.01568   0.15340  -0.07666   0.00065
                          A7        A8        A9        A10       A11
         1              0.53171  -0.02435   0.06550  -0.00400  -0.05979
                          A12       A13       A14       A15       A16
         1              0.01537  -0.00961  -0.01158   0.00104  -0.00713
                          A17       A18       A19       A20       A21
         1              0.01290  -0.00032   0.00347  -0.00513   0.00037
                          A22       A23       D1        D2        D3
         1              0.00100   0.00068  -0.05875   0.00609   0.05824
                          D4        D5        D6        D7        D8
         1             -0.07758   0.04362  -0.04511   0.07608  -0.03234
                          D9        D10       D11       D12       D13
         1              0.08885  -0.05995  -0.06715  -0.07053  -0.07278
                          D14       D15       D16       D17       D18
         1              0.04639   0.04301   0.04076  -0.00766  -0.00507
                          D19       D20       D21       D22       D23
         1             -0.00537  -0.00172   0.00086   0.00056   0.00314
                          D24       D25
         1              0.00572   0.00542
 RFO step:  Lambda0=2.680171723D-09 Lambda=-4.35444083D-08.
 Linear search not attempted -- option 19 set.
 Iteration  1 RMS(Cart)=  0.00030021 RMS(Int)=  0.00000009
 Iteration  2 RMS(Cart)=  0.00000009 RMS(Int)=  0.00000000
 Variable       Old X    -DE/DX   Delta X   Delta X   Delta X     New X
                                 (Linear)    (Quad)   (Total)
    R1        2.05266   0.00000   0.00000   0.00000   0.00000   2.05266
    R2        2.59202  -0.00002   0.00000  -0.00011  -0.00011   2.59191
    R3        2.68567   0.00001   0.00000  -0.00005  -0.00005   2.68562
    R4        2.05125   0.00000   0.00000   0.00000   0.00000   2.05125
    R5        2.45249   0.00001   0.00000  -0.00002  -0.00002   2.45247
    R6        2.05490   0.00000   0.00000  -0.00001  -0.00001   2.05489
    R7        2.82790   0.00000   0.00000  -0.00003  -0.00003   2.82788
    R8        1.83034  -0.00003   0.00000  -0.00006  -0.00006   1.83029
    R9        2.06722   0.00000   0.00000   0.00000   0.00000   2.06722
   R10        2.08000   0.00000   0.00000   0.00000   0.00000   2.08001
   R11        2.88704   0.00000   0.00000   0.00000   0.00000   2.88704
   R12        2.06859   0.00000   0.00000   0.00000   0.00000   2.06859
   R13        2.06515   0.00000   0.00000   0.00000   0.00000   2.06515
   R14        2.06140   0.00000   0.00000   0.00000   0.00000   2.06140
    A1        1.95031   0.00000   0.00000  -0.00005  -0.00005   1.95026
    A2        2.05306  -0.00001   0.00000   0.00001   0.00001   2.05307
    A3        2.01860   0.00000   0.00000  -0.00002  -0.00002   2.01858
    A4        1.34342   0.00000   0.00000   0.00013   0.00013   1.34356
    A5        1.92000   0.00000   0.00000  -0.00005  -0.00005   1.91995
    A6        2.05757   0.00001   0.00000   0.00001   0.00001   2.05758
    A7        2.30350  -0.00002   0.00000   0.00003   0.00003   2.30353
    A8        2.06841   0.00000   0.00000   0.00002   0.00002   2.06843
    A9        2.14585   0.00000   0.00000   0.00003   0.00003   2.14589
   A10        2.01686   0.00000   0.00000   0.00002   0.00002   2.01688
   A11        1.98948   0.00002   0.00000   0.00071   0.00071   1.99020
   A12        1.89739   0.00000   0.00000   0.00001   0.00001   1.89740
   A13        1.84070   0.00000   0.00000   0.00002   0.00002   1.84072
   A14        2.00973   0.00000   0.00000  -0.00001  -0.00001   2.00972
   A15        1.85210   0.00000   0.00000   0.00000   0.00000   1.85210
   A16        1.93258   0.00000   0.00000   0.00000   0.00000   1.93258
   A17        1.92287   0.00000   0.00000  -0.00001  -0.00001   1.92286
   A18        1.94268   0.00000   0.00000  -0.00001  -0.00001   1.94267
   A19        1.93755   0.00000   0.00000   0.00001   0.00001   1.93756
   A20        1.90772   0.00000   0.00000   0.00002   0.00002   1.90774
   A21        1.88000   0.00000   0.00000   0.00000   0.00000   1.88000
   A22        1.89130   0.00000   0.00000  -0.00002  -0.00002   1.89128
   A23        1.90356   0.00000   0.00000   0.00001   0.00001   1.90357
    D1       -1.96005  -0.00001   0.00000  -0.00015  -0.00015  -1.96020
    D2        0.04444  -0.00002   0.00000  -0.00009  -0.00009   0.04435
    D3        2.05611  -0.00001   0.00000  -0.00005  -0.00005   2.05606
    D4       -2.71787   0.00000   0.00000  -0.00013  -0.00013  -2.71800
    D5        0.06723   0.00000   0.00000   0.00013   0.00013   0.06736
    D6        1.68134   0.00000   0.00000  -0.00014  -0.00014   1.68121
    D7       -1.81674   0.00000   0.00000   0.00012   0.00012  -1.81662
    D8       -0.16793   0.00000   0.00000  -0.00014  -0.00014  -0.16807
    D9        2.61717   0.00000   0.00000   0.00012   0.00012   2.61729
   D10       -1.87076  -0.00001   0.00000  -0.00048  -0.00048  -1.87123
   D11        0.56004   0.00000   0.00000  -0.00021  -0.00021   0.55982
   D12       -1.41990   0.00000   0.00000  -0.00023  -0.00023  -1.42013
   D13        2.73960   0.00000   0.00000  -0.00022  -0.00022   2.73938
   D14       -2.92839   0.00000   0.00000   0.00004   0.00004  -2.92836
   D15        1.37486   0.00000   0.00000   0.00002   0.00002   1.37488
   D16       -0.74883   0.00000   0.00000   0.00003   0.00003  -0.74880
   D17        1.01222   0.00000   0.00000  -0.00067  -0.00067   1.01155
   D18        3.10629   0.00000   0.00000  -0.00067  -0.00067   3.10562
   D19       -1.07633   0.00000   0.00000  -0.00064  -0.00064  -1.07697
   D20       -3.10986   0.00000   0.00000  -0.00067  -0.00067  -3.11053
   D21       -1.01579   0.00000   0.00000  -0.00067  -0.00067  -1.01646
   D22        1.08477   0.00000   0.00000  -0.00064  -0.00064   1.08413
   D23       -1.06641   0.00000   0.00000  -0.00067  -0.00067  -1.06708
   D24        1.02767   0.00000   0.00000  -0.00068  -0.00068   1.02699
   D25        3.12823   0.00000   0.00000  -0.00065  -0.00065   3.12758
         Item               Value     Threshold  Converged?
 Maximum Force            0.000028     0.000450     YES
 RMS     Force            0.000007     0.000300     YES
 Maximum Displacement     0.000883     0.001800     YES
 RMS     Displacement     0.000300     0.001200     YES
 Predicted change in Energy=-2.043212D-08
 Optimization completed.
    -- Stationary point found.
                           ----------------------------
                           !   Optimized Parameters   !
                           ! (Angstroms and Degrees)  !
 --------------------------                            --------------------------
 ! Name  Definition              Value          Derivative Info.                !
 --------------------------------------------------------------------------------
 ! R1    R(1,2)                  1.0862         -DE/DX =    0.0                 !
 ! R2    R(1,3)                  1.3716         -DE/DX =    0.0                 !
 ! R3    R(1,4)                  1.4212         -DE/DX =    0.0                 !
 ! R4    R(1,15)                 1.0855         -DE/DX =    0.0                 !
 ! R5    R(3,6)                  1.2978         -DE/DX =    0.0                 !
 ! R6    R(4,5)                  1.0874         -DE/DX =    0.0                 !
 ! R7    R(4,8)                  1.4965         -DE/DX =    0.0                 !
 ! R8    R(6,7)                  0.9686         -DE/DX =    0.0                 !
 ! R9    R(8,9)                  1.0939         -DE/DX =    0.0                 !
 ! R10   R(8,10)                 1.1007         -DE/DX =    0.0                 !
 ! R11   R(8,11)                 1.5278         -DE/DX =    0.0                 !
 ! R12   R(11,12)                1.0947         -DE/DX =    0.0                 !
 ! R13   R(11,13)                1.0928         -DE/DX =    0.0                 !
 ! R14   R(11,14)                1.0908         -DE/DX =    0.0                 !
 ! A1    A(2,1,3)              111.7443         -DE/DX =    0.0                 !
 ! A2    A(2,1,4)              117.6318         -DE/DX =    0.0                 !
 ! A3    A(2,1,15)             115.6573         -DE/DX =    0.0                 !
 ! A4    A(3,1,4)               76.9726         -DE/DX =    0.0                 !
 ! A5    A(3,1,15)             110.0081         -DE/DX =    0.0                 !
 ! A6    A(4,1,15)             117.8903         -DE/DX =    0.0                 !
 ! A7    A(1,3,6)              131.9806         -DE/DX =    0.0                 !
 ! A8    A(1,4,5)              118.5111         -DE/DX =    0.0                 !
 ! A9    A(1,4,8)              122.9484         -DE/DX =    0.0                 !
 ! A10   A(5,4,8)              115.5575         -DE/DX =    0.0                 !
 ! A11   A(3,6,7)              113.9889         -DE/DX =    0.0                 !
 ! A12   A(4,8,9)              108.7125         -DE/DX =    0.0                 !
 ! A13   A(4,8,10)             105.4642         -DE/DX =    0.0                 !
 ! A14   A(4,8,11)             115.1488         -DE/DX =    0.0                 !
 ! A15   A(9,8,10)             106.1175         -DE/DX =    0.0                 !
 ! A16   A(9,8,11)             110.7289         -DE/DX =    0.0                 !
 ! A17   A(10,8,11)            110.1725         -DE/DX =    0.0                 !
 ! A18   A(8,11,12)            111.3075         -DE/DX =    0.0                 !
 ! A19   A(8,11,13)            111.0134         -DE/DX =    0.0                 !
 ! A20   A(8,11,14)            109.3044         -DE/DX =    0.0                 !
 ! A21   A(12,11,13)           107.716          -DE/DX =    0.0                 !
 ! A22   A(12,11,14)           108.3636         -DE/DX =    0.0                 !
 ! A23   A(13,11,14)           109.0661         -DE/DX =    0.0                 !
 ! D1    D(2,1,3,6)           -112.3025         -DE/DX =    0.0                 !
 ! D2    D(4,1,3,6)              2.5463         -DE/DX =    0.0                 !
 ! D3    D(15,1,3,6)           117.8065         -DE/DX =    0.0                 !
 ! D4    D(2,1,4,5)           -155.7225         -DE/DX =    0.0                 !
 ! D5    D(2,1,4,8)              3.852          -DE/DX =    0.0                 !
[...]
    11  C    0.004340  -0.140147   0.007467  -0.028770   5.062378   0.385127
    12  H   -0.000231   0.032259   0.002803  -0.010356   0.385127   0.652046
    13  H   -0.000205   0.003035  -0.008424  -0.001249   0.383477  -0.030177
    14  H    0.003466  -0.033657  -0.002281   0.004734   0.449043  -0.036200
    15  H   -0.003274  -0.011540   0.001004  -0.000212   0.005330   0.000026
             13         14         15
     1  C    0.006310   0.000625   0.396531
     2  H    0.000049  -0.000207  -0.031868
     3  H    0.000607   0.004524  -0.018860
     4  C   -0.012140  -0.009819   0.012920
     5  H   -0.000031   0.005824  -0.013430
     6  O    0.000425  -0.018640   0.004040
     7  H   -0.000205   0.003466  -0.003274
     8  C    0.003035  -0.033657  -0.011540
     9  H   -0.008424  -0.002281   0.001004
    10  H   -0.001249   0.004734  -0.000212
    11  C    0.383477   0.449043   0.005330
    12  H   -0.030177  -0.036200   0.000026
    13  H    0.611999  -0.022803   0.000129
    14  H   -0.022803   0.556305  -0.000276
    15  H    0.000129  -0.000276   0.578123
 Mulliken atomic charges:
              1
     1  C   -0.726374
     2  H    0.100962
     3  H    0.287606
     4  C    0.403731
     5  H    0.170339
     6  O   -0.604247
     7  H    0.247131
     8  C    0.003016
     9  H    0.073862
    10  H    0.034334
    11  C   -0.284692
    12  H    0.044615
    13  H    0.068999
    14  H    0.099362
    15  H    0.081356
 Sum of Mulliken charges=   0.00000
 Atomic charges with hydrogens summed into heavy atoms:
              1
     1  C   -0.544056
     2  H    0.000000
     3  H    0.000000
     4  C    0.574070
     5  H    0.000000
     6  O   -0.069509
     7  H    0.000000
     8  C    0.111213
     9  H    0.000000
    10  H    0.000000
    11  C   -0.071717
    12  H    0.000000
    13  H    0.000000
    14  H    0.000000
    15  H    0.000000
 Sum of Mulliken charges=   0.00000
 Electronic spatial extent (au):  <R**2>=   538.6187
 Charge=     0.0000 electrons
 Dipole moment (field-independent basis, Debye):
    X=     0.8458    Y=    -1.4777    Z=     1.9166  Tot=     2.5636
 Quadrupole moment (field-independent basis, Debye-Ang):
   XX=   -34.5252   YY=   -35.2431   ZZ=   -32.3849
   XY=    -0.8564   XZ=    -1.8545   YZ=     3.4264
 Traceless Quadrupole moment (field-independent basis, Debye-Ang):
   XX=    -0.4741   YY=    -1.1920   ZZ=     1.6662
   XY=    -0.8564   XZ=    -1.8545   YZ=     3.4264
 Octapole moment (field-independent basis, Debye-Ang**2):
  XXX=     1.5721  YYY=     8.6636  ZZZ=     2.3089  XYY=     0.4346
  XXY=     1.9054  XXZ=     1.2912  XZZ=    -0.4907  YZZ=     0.9068
  YYZ=     5.5161  XYZ=    -2.8497
 Hexadecapole moment (field-independent basis, Debye-Ang**3):
 XXXX=  -456.0110 YYYY=  -196.0752 ZZZZ=   -71.2890 XXXY=    -6.4121
 XXXZ=    -9.8273 YYYX=   -14.1106 YYYZ=    14.6221 ZZZX=    -1.6182
 ZZZY=     3.6703 XXYY=  -109.1399 XXZZ=   -86.5633 YYZZ=   -46.8367
 XXYZ=     2.8596 YYXZ=    -3.7142 ZZXY=    -1.1214
 N-N= 1.886525791952D+02 E-N=-9.205804492684D+02  KE= 2.318498346323D+02
 1\1\GINC-NODE16\SP\RMP2-FC\CBSB3\C4H10O1\MRHARPER\19-Oct-2009\0\\#N Ge
 om=AllCheck Guess=Read SCRF=Check MP2/CBSB3 CBSExtrap=(NMin=10,MinPop)
 \\TS: sBuOH = C4H8-1 + H2O: geometry\\0,1\C,0,-0.0027189418,0.00168801
 91,0.0054874336\H,0,-0.0003946851,0.001696836,1.0917045479\H,0,1.27021
 85624,-0.0042210516,-0.5053824201\C,0,0.0837047567,1.2577198421,-0.653
 843951\H,0,-0.3064781844,1.3408599822,-1.6654262109\O,0,1.9436014962,0
 .8852348303,-1.1684912384\H,0,2.0594801164,0.6728671522,-2.1063665143\
 C,0,0.2602661607,2.5508382682,0.0783245464\H,0,0.8517345102,2.36581711
 49,0.9797699382\H,0,-0.7459212972,2.8313986659,0.4252972665\C,0,0.8690
 669864,3.6849761644,-0.744553768\H,0,0.2665708495,3.8996636396,-1.6329
 045414\H,0,0.9344205397,4.6040883797,-0.156982178\H,0,1.8700429877,3.3
 977645019,-1.0693677363\H,0,-0.5946488527,-0.7781664084,-0.4632371555\
 \Version=AM64L-G03RevD.01\State=1-A\HF=-232.0998944\MP2=-233.0606235\E
 2(CBS)=-1.0535929\CBS-Int=-1.021493\OIii=8.3529479\RMSD=4.089e-09\Ther
 mal=0.\PG=C01 [X(C4H10O1)]\\@


 A MATHEMATICIAN IS A MACHINE FOR TURNING COFFEE INTO THEOREMS.
     -- QUOTED BY PAUL ERDOS
 Diagonal vibrational polarizability:
        0.0000000       0.0000000       0.0000000
    1 imaginary frequencies ignored.

 Complete Basis Set (CBS) Extrapolation:
 M. R. Nyden and G. A. Petersson, JCP 75, 1843 (1981)
 G. A. Petersson and M. A. Al-Laham, JCP 94, 6081 (1991)
 G. A. Petersson, T. Tensfeldt, and J. A. Montgomery, JCP 94, 6091 (1991)
 J. A. Montgomery, J. W. Ochterski, and G. A. Petersson, JCP 101, 5900 (1994)

 Temperature=            298.150000 Pressure=                    1.000000
 E(ZPE)=                   0.126484 E(Thermal)=                  0.133310
 E(SCF)=                 -232.099894 DE(MP2)=                     -0.960729
 DE(CBS)=                  -0.092864 DE(MP34)=                    -0.053588
 DE(CCSD)=                 -0.026731 DE(Int)=                      0.032100
 DE(Empirical)=            -0.048364
 CBS-QB3 (0 K)=          -233.123586 CBS-QB3 Energy=            -233.116760
 CBS-QB3 Enthalpy=       -233.115815 CBS-QB3 Free Energy=       -233.153127
 1\1\GINC-NODE16\Mixed\CBS-QB3\CBS-QB3\C4H10O1\MRHARPER\19-Oct-2009\0\\
 # opt=(calcfc,ts) geom=connectivity cbs-qb3\\TS: sBuOH = C4H8-1 + H2O:
  geometry\\0,1\C,0,-0.0027189418,0.0016880191,0.0054874336\H,0,-0.0003
 946851,0.001696836,1.0917045479\H,0,1.2702185624,-0.0042210516,-0.5053
 824201\C,0,0.0837047567,1.2577198421,-0.653843951\H,0,-0.3064781844,1.
 3408599822,-1.6654262109\O,0,1.9436014962,0.8852348303,-1.1684912384\H
 ,0,2.0594801164,0.6728671522,-2.1063665143\C,0,0.2602661607,2.55083826
 82,0.0783245464\H,0,0.8517345102,2.3658171149,0.9797699382\H,0,-0.7459
 212972,2.8313986659,0.4252972665\C,0,0.8690669864,3.6849761644,-0.7445
 53768\H,0,0.2665708495,3.8996636396,-1.6329045414\H,0,0.9344205397,4.6
 040883797,-0.156982178\H,0,1.8700429877,3.3977645019,-1.0693677363\H,0
 ,-0.5946488527,-0.7781664084,-0.4632371555\\Version=AM64L-G03RevD.01\S
 tate=1-A\HF/CbsB3=-232.0998944\E2(CBS)/CbsB3=-1.0535929\CBS-Int/CbsB3=
 0.0321\OIii/CbsB3=8.3529479\MP2/CbsB4=-232.8531565\MP4(SDQ)/CbsB4=-232
 .9067448\MP4(SDQ)/6-31+G(d')=-232.8124354\QCISD(T)/6-31+G(d')=-232.839
 166\CBSQB3=-233.1235857\FreqCoord=-0.0051380554,0.0031898938,0.0103697
 466,-0.0007458468,0.0032065554,2.0630226147,2.4003652131,-0.0079766316
 ,-0.9550343669,0.1581790663,2.3767460548,-1.2355860017,-0.5791598345,2
 .5338581504,-3.1471994348,3.6728745412,1.6728513935,-2.2081284305,3.89
 18533983,1.2715346422,-3.9804558498,0.4918317657,4.8203857388,0.148011
 9423,1.609544963,4.4707464302,1.8514968574,-1.4095869692,5.3505680546,
 0.8036953591,1.6422985964,6.9635957607,-1.4070027135,0.5037459008,7.36
 92962933,-3.0857423861,1.765798914,8.700466134,-0.2966533243,3.5338691
 054,6.4208443761,-2.020812158,-1.1237234775,-1.4705213984,-0.875391358
 9\PG=C01 [X(C4H10O1)]\NImag=1\\0.21090094,0.21564936,0.52545495,0.0468
 6356,-0.02987230,0.62215894,-0.02288199,-0.01589295,0.00574928,0.02719
 780,-0.01259897,-0.04694569,-0.00888483,0.00857057,0.04883815,-0.00604
 164,0.00038501,-0.32819125,0.00328177,-0.00111371,0.35017456,0.0126914
 8,-0.03822891,0.00184273,0.00095028,-0.00046312,-0.00137249,-0.0111791
 5,0.06496669,-0.05875511,-0.01371035,-0.00283349,-0.00070363,0.0002344
 7,-0.07488060,0.03534421,-0.05662151,0.02975639,-0.02792050,0.01759788
 ,-0.00514860,-0.00357187,0.07013064,0.05235642,0.00208861,-0.09090415,
 0.01634605,-0.01252087,0.00400862,-0.00006316,-0.00010964,0.03642002,0
 .07018192,-0.05390322,0.16640611,-0.07930702,-0.24790634,0.10557719,0.
 00773610,0.00002841,-0.00201734,0.05525415,0.01746124,-0.03092639,0.00
 937262,0.56518004,0.03044356,0.06701083,-0.15463895,-0.00896147,0.0324
 4023,-0.01243511,-0.04489390,-0.03778052,0.04154239,0.17574548,-0.0414
 6287,0.57604011,0.00991588,-0.00472024,0.00199470,0.00404393,-0.001195
 60,0.00058934,-0.00331095,-0.00525871,0.00393657,-0.07013567,0.0076751
 6,-0.09819063,0.07446227,0.00503175,0.00185642,0.02596559,0.00160997,-
 0.00430652,0.00145853,0.00122301,0.00164490,-0.00162635,0.00506347,-0.
 05707506,0.01865374,-0.00608754,0.05683912,-0.00476089,0.00019581,-0.0
 0948058,-0.00235158,0.00252040,0.00044553,0.00204403,0.00174765,-0.001
 72125,-0.09651212,0.01850541,-0.29258709,0.10016079,-0.01952133,0.3080
 0834,-0.01616817,-0.02695794,0.03257748,-0.00887798,0.00111878,0.00136
 796,-0.01917185,-0.03104043,0.01622645,0.00829874,0.00775708,-0.035928
 84,-0.01725034,0.00526607,0.00575910,0.08364682,-0.06421735,0.03363865
 ,0.02054274,-0.00085654,0.00037709,0.00098112,0.04467008,-0.01024576,-
 0.05526818,-0.04242709,-0.03790189,0.04492171,0.00832326,-0.00206335,-
 0.00361068,0.01354379,0.07419113,0.05423298,0.00815765,-0.00872029,0.0
 0015955,0.00062824,-0.00009944,-0.02707056,-0.00050659,-0.00615363,-0.
 00548590,0.00544667,-0.02994650,-0.00628585,0.00167941,0.00496088,-0.0
 7695701,0.09825228,0.52244763,-0.00377942,-0.00889666,0.00088383,-0.00
 050180,-0.00005964,0.00001490,-0.00428013,-0.00046491,0.00362908,0.014
 13641,0.00258928,0.00563464,-0.00070035,0.00037013,-0.00089077,-0.0178
 1748,0.02269281,0.04432476,0.01777926,-0.00926714,0.00286343,0.0002597
 3,0.00089022,-0.00035801,-0.00010154,0.01342369,0.01416167,0.00646107,
 -0.01207416,-0.00507546,-0.00400116,-0.00039700,0.00040235,0.00071510,
 0.02174286,-0.05144026,-0.10452297,-0.01795713,0.04090720,0.00367605,0
 .00024801,0.00133333,-0.00045365,-0.00001170,0.00007025,-0.00232784,-0
 .00756102,-0.00366050,0.00640282,0.00316687,-0.00237852,-0.00033123,0.
 00008613,0.00057792,0.04894078,-0.09930759,-0.47583778,-0.05505433,0.1
 0265340,0.47841259,0.00495832,-0.00238422,-0.00219598,-0.00221149,0.00
 186317,-0.00016602,-0.00045336,-0.00347605,0.00321704,-0.06586151,-0.0
 2580993,-0.02425719,0.00456668,-0.01290489,-0.00675640,-0.01214049,0.0
 1029211,0.01360295,-0.00326604,0.00334436,-0.00196017,0.54348294,-0.00
 177109,-0.02510286,-0.01214769,-0.00093558,0.00178805,-0.00187818,-0.0
 0105854,-0.00204294,0.00113032,-0.02401604,-0.17624775,-0.05379645,-0.
 00033947,0.00363688,0.00303819,0.00582466,-0.00348369,-0.00548162,0.00
 109671,-0.00060144,0.00038920,-0.01082534,0.47573131,0.00328203,0.0092
 6852,0.01178853,0.00196670,0.00051906,0.00113548,-0.00155408,0.0003618
 6,0.00023651,-0.01978782,-0.05095122,-0.12073416,-0.00173605,-0.024377
 05,-0.01218307,0.00534168,-0.00137870,-0.00470436,0.00052014,-0.001216
 41,0.00082059,0.03496456,-0.01062542,0.53782921,0.00046988,-0.00011811
 ,0.00000501,-0.00020111,-0.00048612,0.00036385,0.00025459,0.00015437,-
 0.00020695,-0.00310325,0.00277569,-0.00187144,0.00122845,-0.00037676,0
 .00059684,0.00078852,-0.00081523,0.00035608,-0.00020528,0.00014063,0.0
 0008726,-0.12481189,0.02118400,-0.11836907,0.13354634,0.00135153,0.000
 44082,-0.00092927,-0.00029585,0.00005040,0.00079536,-0.00082982,-0.000
 66123,0.00045315,-0.01699050,0.00361212,-0.02706207,0.00010516,-0.0046
 6274,-0.00257344,-0.00043132,0.00093201,0.00056552,-0.00024628,0.00013
 950,0.00017308,0.02349734,-0.05514961,0.03727790,-0.02283101,0.0638438
 2,0.00153296,0.00151300,0.00132950,-0.00049409,-0.00043383,0.00046452,
 -0.00038858,-0.00045266,-0.00015350,-0.01066413,-0.00050659,-0.0190651
 3,-0.00050870,-0.00281160,-0.00050174,0.00000590,0.00030112,0.00101324
 ,-0.00013920,0.00054608,0.00022804,-0.11607435,0.03568010,-0.21782231,
 0.12800799,-0.03853448,0.23919276,0.00266996,-0.00128788,0.00000901,-0
 .00046700,0.00014696,-0.00013539,-0.00164702,-0.00106286,0.00076668,-0
 .00143855,0.00279557,0.00098650,-0.00006639,0.00070766,0.00034196,0.00
 249003,0.00056913,-0.00062549,0.00001922,0.00021792,0.00004584,-0.2464
 3667,0.05750912,0.06566100,-0.01684344,0.00530941,0.00521302,0.2724785
 9,-0.00097971,-0.00158372,-0.00031975,0.00048090,-0.00038845,0.0003735
 9,-0.00102953,0.00074667,-0.00014442,0.02681109,-0.00940275,-0.0075452
 8,-0.00099296,0.00069996,-0.00014228,0.00114138,-0.00038750,-0.0030020
 4,0.00041766,-0.00109470,0.00066827,0.06164467,-0.06161172,-0.02263831
 ,0.00389990,-0.00183462,-0.00122648,-0.06473778,0.07116468,-0.00147286
 ,0.00042794,0.00042479,0.00006411,-0.00006028,-0.00003015,0.00102854,0
 .00115707,-0.00107578,0.01588306,-0.00628828,-0.00617982,-0.00122573,0
 .00062442,0.00001649,0.00075404,-0.00223258,-0.00081350,0.00039060,-0.
 00021905,0.00040613,0.06911638,-0.02149210,-0.06824436,-0.02352447,0.0
 0762449,0.00875108,-0.07795351,0.02240703,0.07320356,0.00193229,0.0004
 8627,-0.00035731,-0.00029870,-0.00000094,0.00018750,0.00060471,-0.0010
 4260,-0.00047647,-0.00248711,-0.00262160,0.00145789,-0.00023954,-0.000
 02656,0.00065776,-0.00130577,-0.00048574,0.00156931,0.00019746,0.00069
 133,0.00001300,-0.09467561,-0.03528480,0.02234071,0.00807083,0.0136041
 2,-0.00859455,-0.01207664,-0.02464371,0.01644167,0.54968079,-0.0025572
 0,-0.00090466,-0.00248419,-0.00024681,0.00009437,0.00007919,0.00031167
 ,-0.00011521,-0.00024628,-0.01136878,-0.03241957,0.01447897,0.00103579
 ,0.00198553,0.00065702,-0.00126305,-0.00228990,0.00128839,-0.00020359,
 0.00026350,-0.00003800,-0.03312893,-0.13460619,0.04544992,-0.00225481,
 -0.00504697,0.00366594,0.00256567,0.00570382,-0.00345544,-0.03441264,0
 .51904007,0.00092227,-0.00373520,-0.00264171,-0.00047685,0.00016803,0.
 00032998,-0.00081329,-0.00055513,0.00094466,-0.00684190,-0.01052403,0.
 01307375,-0.00007131,-0.00092217,0.00078308,0.00050117,-0.00013664,-0.
 00057242,0.00011135,-0.00018436,0.00009656,0.02326972,0.04697302,-0.11
 659027,0.01233381,0.02063580,-0.01397462,0.00417735,0.00901753,-0.0063
 7587,0.02056307,0.04454166,0.53490106,-0.00018065,0.00010784,0.0003011
 9,0.00007743,-0.00007820,-0.00007452,-0.00004901,0.00011567,0.00008063
 ,0.00063014,0.00018966,-0.00007966,0.00008292,0.00039049,-0.00019747,0
 .00021393,0.00035065,0.00014742,-0.00004035,0.00021426,0.00000320,0.00
 816389,-0.00286147,0.01343531,-0.00028758,-0.00276647,0.00176659,0.000
 96304,0.00081098,-0.00015197,-0.12872433,0.02715897,-0.11691313,0.1360
 5722,-0.00029605,-0.00009804,-0.00019948,0.00000580,0.00009688,-0.0002
 0697,-0.00006703,0.00002908,0.00005529,0.00122713,0.00163695,0.0016411
 8,-0.00037129,-0.00031900,-0.00075734,-0.00005712,0.00000530,-0.000465
 44,0.00014261,-0.00021923,-0.00003929,0.01470425,-0.00594453,0.0205808
 8,-0.00246831,-0.00332253,0.00251632,-0.00010556,0.00089001,-0.0007044
 0,0.02653184,-0.05623614,0.03733292,-0.02747458,0.05949336,0.00028385,
 0.00020798,0.00027581,0.00002480,-0.00020401,0.00007140,0.00005829,-0.
 00010569,-0.00007275,-0.00021537,-0.00139352,0.00040926,0.00006498,0.0
 0078094,0.00067560,-0.00002721,0.00005196,0.00023452,-0.00003502,0.000
 08241,0.00001049,-0.01007298,0.00352220,-0.01574915,0.00234789,0.00273
 930,-0.00068931,0.00023807,-0.00045711,0.00012945,-0.11524718,0.038125
 64,-0.21318822,0.12734850,-0.04515552,0.23310668,0.00044997,-0.0005744
 6,-0.00061238,-0.00000685,0.00001989,0.00002871,-0.00065523,-0.0002266
 6,0.00052423,-0.00139220,-0.00202860,0.00268960,0.00007768,0.00027240,
 0.00015870,0.00081760,0.00166965,-0.00069877,0.00000906,-0.00020707,-0
 .00002365,-0.00235675,-0.01155208,-0.00851674,0.00048385,0.00058433,0.
 00006877,0.00018586,0.00032896,-0.00063399,-0.04824869,-0.01145560,-0.
 00717768,-0.00162591,-0.01610390,-0.00973212,0.04744520,-0.00010557,-0
 .00089989,-0.00096980,-0.00020596,0.00011169,0.00006426,-0.00022172,-0
 .00012577,0.00013549,-0.00152042,-0.00217921,0.00426400,0.00004264,0.0
 0018563,0.00000312,0.00010690,-0.00044547,-0.00001955,-0.00008223,0.00
 004154,0.00004033,-0.00059186,-0.01878262,-0.01403372,0.00072043,0.000
 40810,0.00003637,-0.00028815,0.00087041,-0.00019038,-0.01219198,-0.229
 02618,-0.11877597,-0.00004435,0.00626407,0.00343096,0.01494478,0.25044
 107,-0.00010907,0.00085081,0.00085842,0.00013243,-0.00013400,-0.000020
 16,0.00048955,0.00020784,-0.00036817,0.00152280,0.00244649,-0.00253554
 ,0.00023961,0.00025160,0.00022482,-0.00024011,-0.00083197,0.00055882,-
 0.00009470,0.00024915,0.00001993,0.00137342,0.01740946,0.01102484,-0.0
 0053451,-0.00056213,0.00084901,-0.00039725,-0.00079034,0.00071897,-0.0
 0812062,-0.12092111,-0.12602966,-0.00034282,-0.02187133,-0.01425593,0.
 00765423,0.12967626,0.13465174,0.00087953,-0.00072871,-0.00020293,-0.0
 0004147,0.00007458,-0.00004534,-0.00119633,-0.00024989,0.00091579,-0.0
 0017248,0.00125426,0.00028025,-0.00020566,-0.00014572,-0.00003699,0.00
 072502,0.00258049,-0.00141190,0.00008728,-0.00032435,0.00007997,-0.013
 40369,0.00151224,0.00472652,0.00069189,-0.00008172,-0.00004330,0.00041
 450,-0.00206536,0.00146320,-0.27248711,0.06498489,0.07005625,-0.015241
 93,0.00434292,0.00499924,0.00475805,-0.00077781,-0.00144364,0.29532772
 ,0.00149399,-0.00015246,-0.00047213,0.00001817,0.00007241,-0.00007822,
 -0.00164837,-0.00098661,0.00131188,-0.00311149,0.00253974,0.00190873,0
 .00001367,-0.00011669,-0.00014848,0.00202913,0.00094266,-0.00135836,0.
 00025511,-0.00005335,-0.00011331,-0.02391127,0.00419741,0.00694836,0.0
 0043982,0.00087188,-0.00032077,-0.00256929,-0.00394351,0.00244541,0.06
 908329,-0.06525625,-0.02281727,0.00384031,-0.00221169,-0.00174520,0.02
 448947,-0.00644261,-0.00628550,-0.07043428,0.07046581,-0.00049730,0.00
 028747,0.00007545,0.00000659,0.00000033,0.00000703,0.00034029,0.000130
 80,-0.00011206,-0.00005876,-0.00119778,-0.00000792,-0.00002508,0.00005
 355,0.00006696,-0.00047090,-0.00062422,-0.00062796,-0.00022780,-0.0006
 0929,-0.00009376,0.01830978,-0.00344404,-0.00644000,0.00003627,-0.0007
 2092,0.00012391,0.00149483,0.00316798,-0.00114977,0.06931687,-0.021332
 92,-0.07104729,-0.02526996,0.00736549,0.00899625,0.01625621,-0.0037412
 4,-0.00563432,-0.07933958,0.02074104,0.07588419,-0.11095385,-0.1327994
 2,-0.07433732,-0.00078967,0.00315181,0.00211101,-0.00897805,-0.0148824
 5,-0.00581683,0.00559487,0.01236759,-0.00305479,-0.00246892,-0.0003934
 9,0.00178706,-0.00424858,0.00410997,0.00414244,-0.00163786,-0.00043841
 ,0.00090195,0.00444565,0.00151767,-0.00227488,-0.00008179,0.00002107,0
 .00031165,-0.00024549,-0.00108649,-0.00017905,0.00005741,0.00083441,0.
 00035916,-0.00003880,-0.00001072,-0.00003576,0.00005834,0.00021529,-0.
 00012931,-0.00013531,0.00001174,0.00012853,0.11942205,-0.11739322,-0.1
 8190548,-0.08235547,0.00195545,0.00124484,0.00102442,0.00354504,0.0042
 4849,0.00170019,-0.01743064,-0.02225047,-0.01367103,0.00216715,0.00129
 258,-0.00062915,0.00121921,-0.00182904,-0.00066158,0.00034614,0.000063
 27,-0.00035439,-0.00231340,-0.00178031,0.00481433,0.00003550,0.0003790
 6,0.00002748,0.00023006,0.00017143,-0.00004386,0.00031372,-0.00118622,
 -0.00101819,0.00004624,-0.00006449,0.00011966,-0.00016112,-0.00042076,
 0.00030477,0.00005845,0.00007326,-0.00007624,0.12738143,0.20196384,-0.
 07173399,-0.08470190,-0.10665149,-0.01624547,-0.02028533,-0.00835076,0
 .00248667,0.00447584,-0.00000216,0.00654556,0.01012539,0.00944323,0.00
 138860,-0.00029542,0.00071409,0.00214952,-0.00166039,-0.00173920,0.000
 93252,-0.00011217,-0.00000528,-0.00237077,0.00072302,-0.00036746,0.000
 37144,0.00011771,0.00025455,0.00017738,0.00063162,0.00021878,0.0002483
 5,0.00019121,0.00029097,-0.00005330,-0.00009231,0.00004593,0.00001489,
 0.00007988,-0.00006277,0.00000247,-0.00001619,-0.00004070,0.07608613,0
 .09081906,0.10625230\\-0.00001601,0.00000499,0.00001727,0.00000113,-0.
 00000075,-0.00000006,0.00000993,0.00000587,-0.00003577,-0.00000485,-0.
 00001053,-0.00000660,-0.00000515,0.00000157,0.00000100,0.00001547,0.00
 001015,0.00004669,-0.00001111,-0.00000968,-0.00003115,0.00000670,0.000
 00200,0.00000058,0.00000042,0.00000054,0.00000296,0.00000036,-0.000003
 57,-0.00000036,0.00000120,0.00000080,0.00000285,-0.00000326,0.00000412
 ,0.00000491,0.00000543,-0.00000108,0.00000498,-0.00000178,-0.00000336,
 -0.00000324,0.00000153,-0.00000108,-0.00000405\\\@
 Job cpu time:  0 days  0 hours 42 minutes 19.9 seconds.
 File lengths (MBytes):  RWF=   4882 Int=      0 D2E=      0 Chk=     14 Scr=      1
 Normal termination of Gaussian 03 at Mon Oct 19 14:33:15 2009.
